
21909
(
(-0.00906414 0 -0.071433)
(-0.00899893 0.000481129 -0.0714338)
(-0.00594004 0.000478517 -0.071753)
(-0.00592507 0 -0.071762)
(-0.00898044 0.00095784 -0.0714314)
(-0.0089695 0.00143637 -0.071425)
(-0.00593492 0.0014368 -0.0717409)
(-0.0059381 0.000958134 -0.0717484)
(0.00692968 0.0038602 -0.0715417)
(0.00394336 0.00384159 -0.0717871)
(0.00383651 0.00433044 -0.0717687)
(0.00686393 0.00434692 -0.07154)
(0.00520404 0.0060257 -0.0714009)
(0.00390014 0.00621676 -0.0714613)
(0.00479721 0.00637122 -0.0712098)
(0.00636603 0.0062345 -0.0711877)
(-0.0169068 0 -0.0699918)
(-0.0169018 0.00046601 -0.0699865)
(-0.0153272 0.000473591 -0.0703481)
(-0.0153851 0 -0.0703416)
(0.0169068 0 -0.0699918)
(0.0169018 0.00046601 -0.0699865)
(0.0193519 0.000469803 -0.069349)
(0.0194064 0 -0.0693386)
(-0.0168815 0.000928224 -0.0699868)
(-0.0169924 0.00142951 -0.0699516)
(-0.0152693 0.00143095 -0.0703481)
(-0.0153108 0.000950101 -0.0703469)
(0.0168815 0.000928224 -0.0699868)
(0.0169924 0.00142951 -0.0699516)
(0.0177737 0.00161665 -0.069753)
(0.0190053 0.0014407 -0.0694314)
(0.0192788 0.000937707 -0.0693646)
(-0.0149588 0.00237964 -0.0701478)
(-0.0151521 0.00192102 -0.070359)
(-0.0177286 0.00196727 -0.0697555)
(-0.017663 0.00242819 -0.0697577)
(-0.0148804 0.00337659 -0.0703606)
(-0.014636 0.00287258 -0.0701644)
(-0.0176171 0.00290394 -0.0697511)
(-0.0175997 0.00338623 -0.0697337)
(0.013301 0.00302061 -0.0703031)
(0.0133215 0.00337361 -0.0706559)
(0.0148804 0.00337659 -0.0703606)
(0.014636 0.00287258 -0.0701644)
(-0.0148796 0.00435451 -0.0703111)
(-0.0148915 0.00387191 -0.0703372)
(-0.0175938 0.00387067 -0.06971)
(-0.0175883 0.00435383 -0.0696828)
(0.0132691 0.00387022 -0.0706609)
(0.0132396 0.00435474 -0.0706384)
(0.0148796 0.00435451 -0.0703111)
(0.0148915 0.00387191 -0.0703372)
(-0.0148591 0.00531404 -0.0702493)
(-0.0148686 0.00483478 -0.0702819)
(-0.0175802 0.00483523 -0.0696531)
(-0.0175699 0.00531512 -0.0696207)
(0.0132237 0.00483566 -0.0706099)
(0.0132123 0.00531519 -0.0705775)
(0.0148591 0.00531404 -0.0702493)
(0.0148686 0.00483478 -0.0702819)
(-0.0148358 0.00626919 -0.0701755)
(-0.0148492 0.00579223 -0.0702136)
(-0.0175565 0.00579329 -0.069586)
(-0.0175397 0.00627004 -0.0695489)
(0.0132008 0.00579369 -0.070542)
(0.013187 0.00627098 -0.070504)
(0.0148358 0.00626919 -0.0701755)
(0.0148492 0.00579223 -0.0702136)
(-0.0147673 0.00722041 -0.0700999)
(-0.0148127 0.00674513 -0.0701366)
(-0.0175249 0.00674923 -0.0695078)
(-0.0174751 0.00723013 -0.069472)
(0.0131676 0.00674834 -0.0704642)
(0.0131345 0.00723229 -0.0704156)
(0.0147673 0.00722041 -0.0700999)
(0.0148127 0.00674513 -0.0701366)
(-0.0145848 0.00816076 -0.0699942)
(-0.0146771 0.00769479 -0.0700657)
(-0.0173464 0.00770949 -0.0694514)
(-0.0171799 0.00817979 -0.0694049)
(0.0130315 0.00765807 -0.0701342)
(0.0127134 0.00814567 -0.0701197)
(0.0145848 0.00816076 -0.0699942)
(0.0146771 0.00769479 -0.0700657)
(-0.012919 0.00867831 -0.0701866)
(-0.0128334 0.00917006 -0.0702482)
(-0.0111191 0.00917105 -0.0705399)
(-0.0112178 0.00868455 -0.0705505)
(0.012919 0.00867831 -0.0701866)
(0.0128334 0.00917006 -0.0702482)
(0.0155082 0.00921419 -0.0696921)
(0.0155324 0.00884837 -0.0696252)
(0.0147053 0.00866958 -0.0698977)
(-0.0127063 0.00965055 -0.0702124)
(-0.0125958 0.0101235 -0.0701653)
(-0.0109109 0.0100766 -0.0702225)
(-0.0110307 0.00964907 -0.0704814)
(0.0127063 0.00965055 -0.0702124)
(0.0125958 0.0101235 -0.0701653)
(0.0153898 0.0101396 -0.0696019)
(0.0154448 0.00967215 -0.0696552)
(-0.0125013 0.0105983 -0.0701124)
(-0.0124617 0.0110783 -0.0700349)
(-0.0107755 0.0110986 -0.0702541)
(-0.0105752 0.0105646 -0.0702089)
(0.00908743 0.0107047 -0.0702885)
(0.00902425 0.0111118 -0.0704373)
(0.0107755 0.0110986 -0.0702541)
(0.0105752 0.0105646 -0.0702089)
(0.0153396 0.0106104 -0.0695437)
(0.0125013 0.0105983 -0.0701124)
(0.0124617 0.0110783 -0.0700349)
(0.0152888 0.0110856 -0.0694722)
(-0.0124109 0.0115227 -0.0698159)
(-0.0124994 0.0120158 -0.0697026)
(-0.0105855 0.0120255 -0.069993)
(-0.0107005 0.0115484 -0.07005)
(0.00885105 0.0115031 -0.0701018)
(0.00847126 0.0119816 -0.0700729)
(0.0105855 0.0120255 -0.069993)
(0.0107005 0.0115484 -0.07005)
(0.0124109 0.0115227 -0.0698159)
(0.0124994 0.0120158 -0.0697026)
(0.0137417 0.0118197 -0.0695617)
(0.0138365 0.0115028 -0.0696101)
(-0.010353 0.0130434 -0.0700189)
(-0.0104756 0.0125302 -0.0701024)
(-0.0133001 0.0125735 -0.0696028)
(-0.013189 0.013067 -0.0695386)
(-0.00867885 0.0125304 -0.0703431)
(-0.00857322 0.0130564 -0.0702511)
(-0.00670697 0.0129639 -0.0701714)
(-0.00687627 0.0125327 -0.0704464)
(0.00867885 0.0125304 -0.0703431)
(0.00857322 0.0130564 -0.0702511)
(0.010353 0.0130434 -0.0700189)
(0.0104756 0.0125302 -0.0701024)
(-0.0116887 0.0134599 -0.0694898)
(-0.0115896 0.0138061 -0.0694376)
(-0.010307 0.0140542 -0.0695825)
(-0.0102374 0.0134814 -0.0697076)
(-0.00841305 0.0135037 -0.0698825)
(-0.00830887 0.0140764 -0.0697929)
(-0.00636971 0.0141311 -0.0702274)
(-0.00626368 0.0134746 -0.0701397)
(0.00465506 0.0135998 -0.0702327)
(0.00421716 0.014116 -0.0704649)
(0.00636971 0.0141311 -0.0702274)
(0.00626368 0.0134746 -0.0701397)
(0.00841305 0.0135037 -0.0698825)
(0.00830887 0.0140764 -0.0697929)
(0.010307 0.0140542 -0.0695825)
(0.0102374 0.0134814 -0.0697076)
(-0.00816439 0.0147447 -0.0697918)
(-0.0081238 0.0155372 -0.0696835)
(-0.00615854 0.0155727 -0.0698769)
(-0.00626949 0.0147894 -0.0699912)
(-0.00425236 0.0148443 -0.0703247)
(-0.00416704 0.0156458 -0.070157)
(-0.00208626 0.0156689 -0.0702437)
(-0.00203557 0.0147807 -0.0704381)
(-1.29633e-13 0.0148887 -0.0704441)
(-1.11693e-13 0.0156838 -0.0702712)
(0.00208626 0.0156689 -0.0702437)
(0.00203557 0.0147807 -0.0704381)
(0.00425236 0.0148443 -0.0703247)
(0.00416704 0.0156458 -0.070157)
(0.00615854 0.0155727 -0.0698769)
(0.00626949 0.0147894 -0.0699912)
(0.00816439 0.0147447 -0.0697918)
(0.0081238 0.0155372 -0.0696835)
(0.0094954 0.0152311 -0.0695657)
(0.00971363 0.0147432 -0.0696096)
(-0.00427858 0.0179107 -0.0696054)
(-0.00268275 0.0179784 -0.0696676)
(-0.00202458 0.0174978 -0.0698121)
(-0.00206441 0.0165545 -0.0700407)
(-0.00406992 0.0164871 -0.0699693)
(-6.40771e-14 0.0165753 -0.0700661)
(-2.96352e-14 0.017419 -0.0698612)
(0.00202458 0.0174978 -0.0698121)
(0.00206441 0.0165545 -0.0700407)
(0.00406992 0.0164871 -0.0699693)
(0.00427858 0.0179107 -0.0696054)
(0.00630272 0.0176661 -0.069514)
(0.00685187 0.0168861 -0.069652)
(0.00609 0.0164762 -0.0698232)
(0.0217895 0 -0.0686272)
(0.0217399 0.000483972 -0.0686377)
(0.0242228 0.000485161 -0.0678013)
(0.0242808 0 -0.0677867)
(0.0241982 0.000960026 -0.0678051)
(0.021702 0.000964915 -0.0686447)
(0.0216689 0.00144608 -0.0686467)
(0.0241879 0.00144178 -0.0678002)
(0.0216512 0.0019283 -0.0686404)
(0.021637 0.00241214 -0.0686296)
(0.0240725 0.00241449 -0.0678136)
(0.0241585 0.00192779 -0.0677986)
(0.0216215 0.00289689 -0.0686158)
(0.0216066 0.00338165 -0.0685982)
(0.0239441 0.00338507 -0.0678176)
(0.0239897 0.00290114 -0.0678239)
(0.0215943 0.00386592 -0.0685765)
(0.0215837 0.00434918 -0.0685509)
(0.0238962 0.00435481 -0.0677791)
(0.0239156 0.00386989 -0.0678017)
(0.0238812 0.00483879 -0.0677516)
(0.0215729 0.00483114 -0.0685221)
(0.0215596 0.00531153 -0.0684907)
(0.0238667 0.00532156 -0.0677205)
(0.0215398 0.0057896 -0.0684581)
(0.0215052 0.0062635 -0.0684273)
(0.023823 0.00628511 -0.0676532)
(0.0238489 0.00580346 -0.0676872)
(0.0214343 0.00673155 -0.0684051)
(0.02116 0.00723343 -0.0684393)
(0.0237531 0.00724529 -0.0675818)
(0.0237883 0.00676609 -0.067619)
(-0.0213364 0.00773751 -0.0683293)
(-0.0213235 0.00820719 -0.0682785)
(-0.0198138 0.00822431 -0.0687297)
(-0.0198915 0.0077676 -0.0687604)
(0.0213364 0.00773751 -0.0683293)
(0.0213235 0.00820719 -0.0682785)
(0.0237069 0.0081993 -0.0674889)
(0.0237305 0.0077232 -0.0675368)
(-0.0212837 0.00867431 -0.0682331)
(-0.0212519 0.00913802 -0.0681825)
(-0.0197255 0.00917222 -0.0686351)
(-0.0197529 0.00869446 -0.0686893)
(0.0212837 0.00867431 -0.0682331)
(0.0212519 0.00913802 -0.0681825)
(0.023586 0.00913421 -0.0674112)
(0.0236665 0.00867059 -0.0674442)
(-0.0195711 0.0101333 -0.068544)
(-0.019682 0.00965317 -0.0685816)
(-0.0213535 0.00964173 -0.0680813)
(-0.022113 0.00983233 -0.067811)
(-0.0220685 0.01018 -0.0677742)
(-0.0193196 0.0110775 -0.0684704)
(-0.0194454 0.0106097 -0.0685079)
(-0.0219757 0.0106417 -0.0677334)
(-0.0218303 0.0111179 -0.0677039)
(-0.0216966 0.0115964 -0.0676667)
(-0.021616 0.0120715 -0.0676094)
(-0.0191536 0.0120806 -0.0683469)
(-0.0189968 0.0115788 -0.0684785)
(0.0177296 0.0117657 -0.0687835)
(0.0176623 0.0121126 -0.0687419)
(0.0191536 0.0120806 -0.0683469)
(0.0189968 0.0115788 -0.0684785)
(-0.0190764 0.0130209 -0.0681952)
(-0.0191238 0.012548 -0.0682706)
(-0.0215454 0.0125466 -0.0675454)
(-0.021444 0.0130238 -0.0674873)
(0.0175878 0.0125699 -0.0686788)
(0.0175346 0.0130546 -0.0686019)
(0.0190764 0.0130209 -0.0681952)
(0.0191238 0.012548 -0.0682706)
(0.0174444 0.0135706 -0.0685216)
(0.0172114 0.0141026 -0.0683277)
(0.0198273 0.0142108 -0.0677417)
(0.0199103 0.0137703 -0.0678083)
(0.0191455 0.0135639 -0.06807)
(-0.0167682 0.0147918 -0.0683014)
(-0.0168375 0.0156659 -0.0682272)
(-0.0153062 0.0156912 -0.0685629)
(-0.0154186 0.0149973 -0.0684942)
(0.0167682 0.0147918 -0.0683014)
(0.0168375 0.0156659 -0.0682272)
(0.0194194 0.0156548 -0.0675413)
(0.0196689 0.0148613 -0.0676482)
(-0.0147901 0.0176408 -0.0682215)
(-0.0148399 0.0166221 -0.0684668)
(-0.0168176 0.0166052 -0.0680118)
(-0.0176336 0.0169367 -0.0677214)
(-0.0174226 0.017696 -0.0675819)
(0.0133618 0.0169334 -0.0686741)
(0.0131545 0.0176775 -0.0684994)
(0.0147901 0.0176408 -0.0682215)
(0.0148399 0.0166221 -0.0684668)
(-0.0126063 0.0186636 -0.0683602)
(-0.0126476 0.0197918 -0.0680608)
(-0.0105426 0.0197958 -0.0684162)
(-0.0110739 0.0189772 -0.068502)
(0.0126476 0.0197918 -0.0680608)
(0.0134315 0.0201786 -0.0677963)
(0.0149403 0.0198498 -0.0675779)
(0.0154264 0.0190317 -0.0677037)
(0.0146433 0.0186391 -0.0679868)
(0.0126063 0.0186636 -0.0683602)
(-0.0102663 0.0217846 -0.0678531)
(-0.010391 0.0208249 -0.0681349)
(-0.0131904 0.0209274 -0.0676169)
(-0.012585 0.0218892 -0.0674276)
(-0.0110413 0.022205 -0.0675946)
(-0.00837073 0.0208343 -0.0684095)
(-0.00833317 0.0218392 -0.0681)
(-0.00636555 0.0219682 -0.0682706)
(-0.00638172 0.0211043 -0.0685411)
(0.00479114 0.0211968 -0.0686421)
(0.00414504 0.0219237 -0.0684556)
(0.00636555 0.0219682 -0.0682706)
(0.00638172 0.0211043 -0.0685411)
(0.00837073 0.0208343 -0.0684095)
(0.00833317 0.0218392 -0.0681)
(0.0102663 0.0217846 -0.0678531)
(0.010391 0.0208249 -0.0681349)
(-0.00413436 0.0243566 -0.0676289)
(-0.00209197 0.0244245 -0.0676984)
(-0.00207763 0.0229349 -0.0682178)
(-0.0041208 0.0228825 -0.0681426)
(4.25906e-17 0.0229635 -0.0682398)
(1.65672e-17 0.024444 -0.0677236)
(0.00209197 0.0244245 -0.0676984)
(0.00207763 0.0229349 -0.0682178)
(0.0041208 0.0228825 -0.0681426)
(0.00413436 0.0243566 -0.0676289)
(0.00625032 0.0241336 -0.0675463)
(0.00692226 0.0233951 -0.0677403)
(0.00624271 0.0229199 -0.0679684)
(-0.0279827 0.000472882 -0.0663381)
(-0.0280269 0 -0.0663242)
(-0.0301408 0 -0.0653901)
(-0.0300986 0.000473111 -0.0654053)
(-0.027872 0.00140556 -0.0663715)
(-0.0279434 0.000942878 -0.0663496)
(-0.030059 0.00094351 -0.0654184)
(-0.0300159 0.00140721 -0.0654299)
(-0.0277453 0.00239561 -0.0663962)
(-0.0276043 0.00190089 -0.066471)
(-0.0300651 0.0019081 -0.0653945)
(-0.0297095 0.00240643 -0.0655405)
(0.0264801 0.002103 -0.0669207)
(0.026443 0.00245011 -0.0669236)
(0.0277453 0.00239561 -0.0663962)
(0.0276043 0.00190089 -0.066471)
(0.0263709 0.00291489 -0.0669334)
(0.0262682 0.00339467 -0.0669512)
(0.0284374 0.00343865 -0.0660567)
(0.028488 0.00309571 -0.0660519)
(0.0278266 0.00290711 -0.0663418)
(0.028385 0.0038956 -0.0660539)
(0.0261851 0.0038794 -0.0669574)
(0.0261455 0.00436256 -0.0669431)
(0.0283526 0.00437004 -0.0660381)
(0.0261237 0.00484657 -0.0669183)
(0.0261077 0.00533043 -0.0668878)
(0.0283153 0.00533526 -0.0659832)
(0.0283317 0.00485157 -0.0660135)
(0.0260924 0.00581335 -0.0668535)
(0.0260756 0.00629507 -0.0668164)
(0.0282834 0.00630073 -0.0659117)
(0.0282997 0.00581861 -0.065949)
(0.0260572 0.00677552 -0.0667766)
(0.0260375 0.0072547 -0.0667339)
(0.0282472 0.00726106 -0.0658284)
(0.028266 0.00678152 -0.0658714)
(0.0282269 0.00773943 -0.0657825)
(0.0260163 0.00773285 -0.0666885)
(0.0259911 0.00821035 -0.0666412)
(0.0282045 0.00821667 -0.0657342)
(0.0259561 0.00868739 -0.0665944)
(0.0259066 0.00916254 -0.0665499)
(0.0281468 0.00916806 -0.0656331)
(0.0281787 0.00869286 -0.065684)
(0.0258429 0.00963277 -0.0665083)
(0.0257582 0.0100966 -0.0664723)
(0.0280445 0.0101131 -0.065538)
(0.0281035 0.00964213 -0.0655837)
(-0.0254837 0.0105963 -0.0665004)
(-0.0256518 0.0110895 -0.0663552)
(-0.0242748 0.0111559 -0.0668601)
(-0.0243184 0.0108132 -0.0669006)
(0.0254837 0.0105963 -0.0665004)
(0.0256518 0.0110895 -0.0663552)
(0.027889 0.0110349 -0.0654556)
(0.0279716 0.0105774 -0.0654959)
(-0.0240414 0.0120909 -0.0667819)
(-0.0241841 0.0116154 -0.0668148)
(-0.0257574 0.0115955 -0.0662276)
(-0.0264639 0.0117922 -0.0659136)
(-0.0263263 0.012141 -0.0659054)
(-0.0238057 0.0130642 -0.066683)
(-0.0239056 0.0125745 -0.0667413)
(-0.0261786 0.0126031 -0.0658775)
(-0.0260829 0.0130851 -0.0658215)
(-0.0235974 0.0141218 -0.0665412)
(-0.0237114 0.0135725 -0.066615)
(-0.0260003 0.0135963 -0.0657505)
(-0.0259016 0.0141519 -0.0656721)
(-0.0255489 0.0156654 -0.0654664)
(-0.0242238 0.0159815 -0.0658923)
(-0.0234983 0.0157015 -0.0662215)
(-0.0232795 0.0148077 -0.0665041)
(-0.0257698 0.0147811 -0.0655854)
(0.0220822 0.0150871 -0.0668487)
(0.0219285 0.0157529 -0.0667457)
(0.0234983 0.0157015 -0.0662215)
(0.0232795 0.0148077 -0.0665041)
(0.0216351 0.0166387 -0.0666264)
(0.0211456 0.0176385 -0.0665263)
(0.0237185 0.0176525 -0.0656492)
(0.0240007 0.0167296 -0.0657882)
(-0.0190755 0.0197929 -0.066546)
(-0.0196302 0.0187874 -0.066676)
(-0.0212559 0.0187463 -0.0661873)
(-0.0219901 0.0191051 -0.065844)
(-0.0217055 0.0198835 -0.0657078)
(0.0174484 0.0209377 -0.0666421)
(0.0168213 0.0219182 -0.0664879)
(0.0196051 0.0220281 -0.0656841)
(0.0198628 0.0212692 -0.0658566)
(0.0191103 0.0209052 -0.066195)
(-0.0147784 0.0241001 -0.0662177)
(-0.0148361 0.0230459 -0.0665791)
(-0.0167977 0.0229818 -0.0661338)
(-0.0175636 0.0233662 -0.0657993)
(-0.0170293 0.0241666 -0.0656504)
(-0.0155182 0.0245091 -0.0658976)
(0.0133008 0.0233697 -0.0667903)
(0.0127284 0.0241484 -0.0666246)
(0.0147784 0.0241001 -0.0662177)
(0.0148361 0.0230459 -0.0665791)
(-0.0104701 0.0262567 -0.0662191)
(-0.010562 0.025223 -0.0666052)
(-0.0126477 0.025197 -0.0662506)
(-0.0133757 0.0256085 -0.0659492)
(-0.0128211 0.0263833 -0.0657536)
(-0.0112162 0.0266742 -0.0659294)
(0.00895623 0.0255086 -0.0667315)
(0.00832523 0.0262463 -0.0665269)
(0.0104701 0.0262567 -0.0662191)
(0.010562 0.025223 -0.0666052)
(-0.00626187 0.0273297 -0.0663165)
(-0.00827818 0.0272706 -0.0661195)
(-0.00901757 0.027701 -0.0658433)
(-0.00842698 0.0284355 -0.065608)
(-0.00638694 0.0287186 -0.0657149)
(-0.00410036 0.0273269 -0.0664863)
(-0.00408977 0.0283426 -0.0660604)
(-0.00198855 0.0283103 -0.0661708)
(-0.00199809 0.027513 -0.066506)
(-1.87745e-19 0.0275357 -0.0665266)
(4.87271e-19 0.0283307 -0.0661919)
(0.00198855 0.0283103 -0.0661708)
(0.00199809 0.027513 -0.066506)
(0.00410036 0.0273269 -0.0664863)
(0.00408977 0.0283426 -0.0660604)
(0.00477574 0.0288121 -0.0658108)
(0.00638694 0.0287186 -0.0657149)
(0.00626187 0.0273297 -0.0663165)
(0.0328985 0 -0.0640474)
(0.0319742 0 -0.0645132)
(0.0319283 0.000476293 -0.0645319)
(0.0328581 0.000488543 -0.0640633)
(0.0328244 0.000965413 -0.0640752)
(0.0318892 0.000951142 -0.0645459)
(0.0318231 0.00142257 -0.0645699)
(0.0327726 0.00145189 -0.0640925)
(0.0307089 0.00211919 -0.0650882)
(0.0306434 0.00246268 -0.0651069)
(0.0327052 0.00242795 -0.0640974)
(0.0327211 0.00194168 -0.0641058)
(0.031589 0.00193459 -0.0646714)
(0.0305682 0.00292738 -0.0651231)
(0.0305436 0.00340401 -0.0651115)
(0.0326883 0.00339394 -0.0640621)
(0.0327011 0.00291215 -0.0640793)
(0.0305375 0.00388587 -0.0650873)
(0.0305232 0.00436742 -0.0650635)
(0.0326617 0.00436144 -0.0640171)
(0.032675 0.00387725 -0.0640415)
(0.0326473 0.00484541 -0.0639896)
(0.0305077 0.00485086 -0.0650365)
(0.0304921 0.00533476 -0.0650059)
(0.0326314 0.0053285 -0.0639594)
(0.0304758 0.00581789 -0.0649721)
(0.0304583 0.0062998 -0.0649354)
(0.0325931 0.0062914 -0.0638914)
(0.0326134 0.00581047 -0.0639265)
(0.0304395 0.00678047 -0.0648958)
(0.0304192 0.00725994 -0.0648534)
(0.0325459 0.00725073 -0.0638137)
(0.0325704 0.00677149 -0.0638538)
(0.0303975 0.00773816 -0.0648083)
(0.030374 0.00821504 -0.0647606)
(0.0324928 0.00820595 -0.0637251)
(0.03252 0.00772888 -0.0637708)
(0.032461 0.00868164 -0.0636782)
(0.0303478 0.00869056 -0.0647108)
(0.0303172 0.00916492 -0.0646597)
(0.0324165 0.00915527 -0.0636345)
(0.0302792 0.00963832 -0.0646086)
(0.030226 0.0101093 -0.0645615)
(0.0322792 0.0100929 -0.0635625)
(0.0323504 0.00962615 -0.0635986)
(0.0301412 0.0105749 -0.0645266)
(0.0300067 0.0110346 -0.0645123)
(0.0318887 0.0111011 -0.0635915)
(0.0322899 0.0106006 -0.0634743)
(-0.0284755 0.0121501 -0.065004)
(-0.0285741 0.0117982 -0.0650256)
(-0.0297859 0.0115816 -0.0645187)
(-0.0305906 0.0118044 -0.0641005)
(-0.0305504 0.0121506 -0.0640549)
(-0.030498 0.0126108 -0.0639909)
(-0.0304422 0.0130913 -0.063921)
(-0.0282866 0.0130956 -0.0649028)
(-0.0283655 0.0126156 -0.0649634)
(-0.0281269 0.0141722 -0.0647459)
(-0.0282163 0.013608 -0.064828)
(-0.0303806 0.0136037 -0.0638432)
(-0.0303014 0.0141676 -0.0637582)
(-0.0275979 0.0156498 -0.0646331)
(-0.027979 0.0148177 -0.0646654)
(-0.0301989 0.014814 -0.0636598)
(-0.0301568 0.0156507 -0.0634793)
(0.0262873 0.016741 -0.0649055)
(0.026009 0.0176934 -0.0647648)
(0.0282139 0.0177725 -0.0638131)
(0.0284065 0.0169959 -0.0639391)
(0.0277486 0.0166712 -0.0643124)
(-0.0255149 0.0187225 -0.0646719)
(-0.0256446 0.0198257 -0.0642907)
(-0.0240972 0.0199185 -0.0648581)
(-0.0242653 0.0191316 -0.0650321)
(0.0279598 0.0187063 -0.0636579)
(0.0255149 0.0187225 -0.0646719)
(0.0256446 0.0198257 -0.0642907)
(0.0263212 0.0201732 -0.063908)
(0.0276066 0.0197836 -0.0634861)
(-0.0233834 0.0219607 -0.0644589)
(-0.0237965 0.0208759 -0.0646678)
(-0.0260485 0.0209388 -0.0637734)
(-0.0256133 0.0220103 -0.0635886)
(-0.0241982 0.0223787 -0.0640128)
(0.0211582 0.0241212 -0.0644554)
(0.0220196 0.0245259 -0.0640126)
(0.0233246 0.0241345 -0.0636984)
(0.023896 0.0231461 -0.0638533)
(0.0216427 0.0230814 -0.0646749)
(-0.0190943 0.0262759 -0.0642572)
(-0.0191366 0.0252513 -0.0646542)
(-0.0217822 0.025261 -0.0638076)
(-0.0212823 0.0263077 -0.0635529)
(-0.0197645 0.0266541 -0.0638978)
(0.0177344 0.0256204 -0.0649083)
(0.0174564 0.0263414 -0.0646947)
(0.0190943 0.0262759 -0.0642572)
(0.0191366 0.0252513 -0.0646542)
(-0.0146906 0.0284142 -0.0645044)
(-0.0153174 0.0276646 -0.0646842)
(-0.0168987 0.0273561 -0.0644211)
(-0.0177359 0.0277868 -0.0640104)
(-0.0174427 0.0284912 -0.0637809)
(-0.0127424 0.0308917 -0.0637757)
(-0.0112578 0.0310647 -0.0639707)
(-0.0105894 0.0306451 -0.0642864)
(-0.010659 0.02977 -0.0646849)
(-0.0125882 0.0294212 -0.0644975)
(0.00909749 0.0299175 -0.0648551)
(0.00838472 0.0306165 -0.0646245)
(0.0105894 0.0306451 -0.0642864)
(0.010659 0.02977 -0.0646849)
(0.0125882 0.0294212 -0.0644975)
(0.0127424 0.0308917 -0.0637757)
(0.0146899 0.0305735 -0.0635096)
(0.01528 0.0297809 -0.0637465)
(0.0145936 0.0293957 -0.0640853)
(-0.00627533 0.0316036 -0.0643882)
(-0.00826501 0.0315855 -0.064172)
(-0.0089611 0.0320193 -0.0638628)
(-0.00829343 0.0326869 -0.0636144)
(-0.00623208 0.0329662 -0.0637055)
(-0.00412609 0.0315707 -0.0645776)
(-0.00420621 0.0330665 -0.0638194)
(-0.0021161 0.0331182 -0.0638961)
(-0.00202216 0.0317488 -0.0645904)
(-5.75714e-19 0.0317801 -0.0646067)
(3.2758e-19 0.0331378 -0.0639209)
(0.0021161 0.0331182 -0.0638961)
(0.00202216 0.0317488 -0.0645904)
(0.00412609 0.0315707 -0.0645776)
(0.00420621 0.0330665 -0.0638194)
(0.00623208 0.0329662 -0.0637055)
(0.00627533 0.0316036 -0.0643882)
(0.0348977 0 -0.0629805)
(0.0348593 0.000486585 -0.0629968)
(0.0368144 0.000482119 -0.0618746)
(0.0368466 0 -0.06186)
(0.0348377 0.000966957 -0.0630032)
(0.0348205 0.00144977 -0.0630034)
(0.0367864 0.00144834 -0.0618762)
(0.0367978 0.000964653 -0.0618789)
(0.0348064 0.00193412 -0.0629982)
(0.034795 0.00241886 -0.0629877)
(0.0367692 0.00241676 -0.0618562)
(0.0367776 0.00193258 -0.0618682)
(0.0347851 0.0029034 -0.0629728)
(0.0347748 0.00338751 -0.0629543)
(0.0367492 0.0033833 -0.0618227)
(0.03676 0.00290042 -0.0618409)
(0.034763 0.00387108 -0.0629329)
(0.0347494 0.00435386 -0.0629089)
(0.036721 0.00434563 -0.0617793)
(0.0367365 0.00386517 -0.061802)
(0.0347336 0.00483577 -0.0628824)
(0.0347159 0.00531717 -0.0628533)
(0.0366753 0.00529776 -0.0617321)
(0.036701 0.00482374 -0.0617557)
(0.0346944 0.00579812 -0.0628226)
(0.0346639 0.00627854 -0.0627932)
(0.0367209 0.00628009 -0.0616128)
(0.0366513 0.0057674 -0.0617043)
(0.0346187 0.00675936 -0.0627683)
(0.0345721 0.00723992 -0.0627404)
(0.036348 0.00725448 -0.0617268)
(0.0364386 0.00678358 -0.0617269)
(0.03453 0.00771766 -0.0627066)
(0.0344898 0.00819005 -0.0626688)
(0.0362382 0.00820038 -0.0616729)
(0.0362922 0.00772773 -0.0617022)
(0.0344533 0.00865662 -0.0626261)
(0.0345065 0.00916364 -0.0625247)
(0.0350993 0.00938209 -0.0621612)
(0.0359255 0.00918009 -0.0617178)
(0.03616 0.00866991 -0.0616546)
(-0.0341861 0.0096627 -0.0626254)
(-0.0350437 0.00971362 -0.0621416)
(-0.0349473 0.0101738 -0.0621223)
(-0.0340365 0.0101259 -0.0626337)
(-0.0327971 0.0111705 -0.0631155)
(-0.0328893 0.0108303 -0.0631269)
(-0.0337589 0.0106322 -0.0627)
(-0.0348565 0.010651 -0.0620933)
(-0.0348052 0.01113 -0.0620381)
(-0.0326362 0.0121059 -0.0630264)
(-0.0326883 0.0116325 -0.0630885)
(-0.0347681 0.0116086 -0.0619711)
(-0.0347212 0.0120843 -0.0619065)
(-0.0325558 0.0130733 -0.0628745)
(-0.0326033 0.0125853 -0.0629495)
(-0.0346635 0.012562 -0.0618437)
(-0.0345857 0.0130475 -0.0617867)
(-0.0324 0.0141424 -0.0627235)
(-0.0324931 0.0135861 -0.0627982)
(-0.0345021 0.0135539 -0.0617244)
(-0.0344972 0.0141593 -0.0615911)
(-0.0319905 0.0156632 -0.0625721)
(-0.032252 0.0147743 -0.0626541)
(-0.0340727 0.0148639 -0.0616613)
(-0.0336513 0.0157027 -0.0616848)
(-0.0327306 0.0159891 -0.0621052)
(0.0325973 0.0167349 -0.0619787)
(0.0305762 0.0167431 -0.0629981)
(0.030355 0.0176975 -0.062844)
(0.0323989 0.0176607 -0.0618256)
(-0.0302369 0.0187348 -0.0625998)
(-0.0308321 0.0191522 -0.0621818)
(-0.030566 0.0199397 -0.0620655)
(-0.0294159 0.0198397 -0.0626506)
(-0.0277915 0.0220251 -0.062662)
(-0.0281479 0.0209501 -0.0628712)
(-0.0302724 0.0209037 -0.061892)
(-0.0299267 0.0220037 -0.0616785)
(-0.0286038 0.0224185 -0.0621549)
(0.0261645 0.0231967 -0.0629391)
(0.0258379 0.0241348 -0.0627209)
(0.0280253 0.0241413 -0.061772)
(0.0283574 0.0231983 -0.0619814)
(-0.0254234 0.0251859 -0.0624765)
(-0.0262369 0.0255819 -0.0619774)
(-0.0259427 0.0263285 -0.0617882)
(-0.0234671 0.0263381 -0.0627662)
(-0.0240258 0.0255451 -0.0628825)
(0.0218299 0.0274503 -0.0628803)
(0.0212864 0.0284876 -0.0626047)
(0.0221018 0.0289055 -0.0621287)
(0.0234762 0.0285127 -0.0618053)
(0.0240571 0.0277313 -0.0619373)
(0.0234124 0.0273632 -0.0623467)
(-0.018992 0.0306151 -0.062338)
(-0.0191006 0.0295983 -0.0627942)
(-0.0218151 0.0296212 -0.0618926)
(-0.0212505 0.0306474 -0.0615886)
(-0.0196957 0.0309894 -0.0619333)
(0.0176397 0.0299308 -0.0630634)
(0.0170387 0.0306877 -0.0628646)
(0.018992 0.0306151 -0.062338)
(0.0191006 0.0295983 -0.0627942)
(-0.0147943 0.0327759 -0.0623768)
(-0.0149147 0.0317817 -0.0628608)
(-0.0169249 0.0317034 -0.0623894)
(-0.0176206 0.0320921 -0.0619968)
(-0.0170259 0.0328314 -0.0617755)
(-0.0154983 0.0331684 -0.0619973)
(0.0133562 0.0321227 -0.0630377)
(0.0127439 0.0328331 -0.0627979)
(0.0147943 0.0327759 -0.0623768)
(0.0149147 0.0317817 -0.0628608)
(-0.0104968 0.0338022 -0.0626995)
(-0.0126115 0.0337834 -0.0623188)
(-0.0133021 0.0341966 -0.0619487)
(-0.0126524 0.0348793 -0.0617037)
(-0.0106923 0.0352285 -0.0618759)
(-0.00851257 0.0341287 -0.0628233)
(-0.0084565 0.0349516 -0.0623768)
(-0.00620031 0.0349049 -0.0626674)
(-0.00692408 0.034264 -0.0629447)
(0.00851257 0.0341287 -0.0628233)
(0.0084565 0.0349516 -0.0623768)
(0.00911917 0.0353844 -0.0620386)
(0.0106923 0.0352285 -0.0618759)
(0.0104968 0.0338022 -0.0626995)
(-0.00199052 0.0359369 -0.0623585)
(-0.00409209 0.0359619 -0.0622414)
(-0.00476938 0.0364009 -0.0619373)
(-0.00405384 0.0369845 -0.0616418)
(-0.00198396 0.0371488 -0.0616444)
(5.46759e-19 0.0359479 -0.0623839)
(3.0784e-19 0.0371797 -0.0616577)
(0.00198396 0.0371488 -0.0616444)
(0.00199052 0.0359369 -0.0623585)
(-0.0385842 0 -0.0607912)
(-0.0394577 0 -0.0602284)
(-0.0394229 0.000493148 -0.0602461)
(-0.0385485 0.000484101 -0.0608094)
(-0.0385329 0.000966124 -0.0608135)
(-0.0394054 0.00097008 -0.0602517)
(-0.0393944 0.00145168 -0.0602492)
(-0.0385218 0.00144933 -0.0608109)
(-0.0385127 0.0019334 -0.0608033)
(-0.0393856 0.00193563 -0.0602414)
(-0.0393768 0.00242015 -0.0602297)
(-0.0385035 0.00241748 -0.0607918)
(-0.0384931 0.00290094 -0.0607772)
(-0.0393668 0.00290415 -0.0602148)
(-0.0393549 0.00338714 -0.0601973)
(-0.0384809 0.00338348 -0.0607599)
(-0.0384664 0.003865 -0.0607404)
(-0.0393406 0.00386905 -0.0601776)
(-0.0393225 0.00435021 -0.0601566)
(-0.0384484 0.00434534 -0.0607194)
(-0.0384242 0.00482382 -0.0606985)
(-0.0392988 0.00483113 -0.0601354)
(-0.039265 0.00531303 -0.0601168)
(-0.0383881 0.00529885 -0.0606817)
(-0.0383231 0.00577024 -0.0606799)
(-0.0392081 0.00580043 -0.0601089)
(-0.0391444 0.00628934 -0.0601013)
(-0.0381055 0.00628409 -0.0607658)
(-0.0372244 0.00727315 -0.0612)
(-0.0372745 0.00681818 -0.0612219)
(-0.0391015 0.00677518 -0.0600764)
(-0.0390675 0.00725904 -0.0600419)
(-0.0371307 0.008222 -0.0611368)
(-0.0371794 0.00774445 -0.0611696)
(-0.039028 0.00773892 -0.0600077)
(-0.038989 0.00821805 -0.0599693)
(-0.0369933 0.00919239 -0.0610819)
(-0.0370622 0.00870624 -0.0611113)
(-0.0389476 0.00869558 -0.0599289)
(-0.038903 0.00916912 -0.0598873)
(-0.0369169 0.0101557 -0.0609754)
(-0.036955 0.00967547 -0.0610305)
(-0.0388631 0.00963848 -0.0598395)
(-0.0389158 0.0101517 -0.0597202)
(-0.0367868 0.0111083 -0.0608879)
(-0.0368534 0.0106323 -0.0609326)
(-0.0386266 0.0106521 -0.0598207)
(-0.0385188 0.0111187 -0.0598053)
(-0.0366732 0.0120492 -0.0607774)
(-0.0367254 0.0115809 -0.0608369)
(-0.038437 0.0115868 -0.059769)
(-0.0383376 0.0120551 -0.0597403)
(0.037285 0.0127819 -0.0602533)
(0.0367109 0.0125621 -0.0606507)
(0.0363853 0.0130766 -0.0607381)
(0.0372182 0.0131261 -0.0602205)
(0.0371056 0.0136289 -0.0601783)
(0.0362222 0.0135804 -0.060725)
(0.0359218 0.0141889 -0.0607643)
(0.0369869 0.0142063 -0.0601178)
(0.0349474 0.0149377 -0.0611518)
(0.0347658 0.0157427 -0.0610533)
(0.0367471 0.0156831 -0.0598973)
(0.0368788 0.0148803 -0.060021)
(0.0344959 0.0176707 -0.0606776)
(0.0350455 0.0180784 -0.060241)
(0.0359908 0.0177217 -0.059788)
(0.0366526 0.0166336 -0.0596985)
(0.0346069 0.0166482 -0.0609032)
(-0.032605 0.0199414 -0.0610185)
(-0.0327907 0.019151 -0.0611719)
(-0.0337712 0.0187912 -0.0607487)
(-0.034841 0.0188698 -0.0601168)
(-0.0346227 0.0198425 -0.0599295)
(-0.0319696 0.0219686 -0.0606575)
(-0.0323489 0.0208906 -0.060837)
(-0.0344582 0.0208851 -0.0596695)
(-0.0336824 0.0219989 -0.0597122)
(-0.0326931 0.0223554 -0.0601282)
(0.0302833 0.0241748 -0.0606836)
(0.0308371 0.0245855 -0.0602381)
(0.0320818 0.0241717 -0.0597536)
(0.0324715 0.0231111 -0.0599623)
(0.030496 0.0231603 -0.0609721)
(-0.0280514 0.0263424 -0.0608539)
(-0.0283176 0.0255998 -0.0610472)
(-0.0293974 0.0252604 -0.0606771)
(-0.0305427 0.0253391 -0.0600756)
(-0.0302935 0.0263462 -0.0597677)
(0.0262524 0.0277605 -0.0610259)
(0.0259384 0.0284862 -0.0608254)
(0.0280261 0.0284945 -0.0598882)
(0.0283148 0.0277717 -0.0600917)
(0.0275891 0.0273745 -0.0606092)
(-0.0235517 0.0307099 -0.0607142)
(-0.0240522 0.0298701 -0.0609366)
(-0.0254448 0.0294869 -0.0605565)
(-0.0261888 0.029878 -0.0600454)
(-0.02573 0.0307312 -0.0598127)
(-0.0242826 0.0311187 -0.0602161)
(0.0216673 0.0317702 -0.0608702)
(0.0210956 0.032737 -0.0605579)
(0.0218526 0.0331611 -0.0600567)
(0.0233404 0.0328228 -0.0596816)
(0.023921 0.031823 -0.0599923)
(0.0175313 0.0341762 -0.0608986)
(0.0169457 0.0349403 -0.0606302)
(0.017697 0.0353755 -0.0601614)
(0.0192064 0.0350135 -0.0599097)
(0.0198134 0.0342803 -0.0601356)
(0.019074 0.0338552 -0.0606136)
(-0.0127446 0.0362939 -0.0608632)
(-0.0126187 0.0370846 -0.0604111)
(-0.0105305 0.0371069 -0.0607963)
(-0.0112441 0.0364633 -0.0610573)
(0.0155006 0.036438 -0.0601332)
(0.014712 0.0359891 -0.0605998)
(0.0127446 0.0362939 -0.0608632)
(0.0126187 0.0370846 -0.0604111)
(0.0133052 0.03747 -0.0600248)
(0.0148822 0.0371431 -0.0598574)
(-0.00622129 0.0381254 -0.0607598)
(-0.00846095 0.0381919 -0.0604466)
(-0.00911329 0.0386165 -0.0600809)
(-0.00839292 0.039216 -0.0597968)
(-0.00631682 0.0394785 -0.0598794)
(-0.00411663 0.0383514 -0.0607966)
(-0.00434687 0.0396213 -0.0599605)
(-0.00270063 0.0396832 -0.0600163)
(-0.00205602 0.0392491 -0.0603264)
(-0.00208178 0.038454 -0.0608355)
(1.45272e-18 0.0384845 -0.0608518)
(8.21776e-19 0.0391863 -0.0604023)
(0.00205602 0.0392491 -0.0603264)
(0.00208178 0.038454 -0.0608355)
(0.00411663 0.0383514 -0.0607966)
(0.00434687 0.0396213 -0.0599605)
(0.00631682 0.0394785 -0.0598794)
(0.00622129 0.0381254 -0.0607598)
(-0.041235 0.000485581 -0.0590207)
(-0.0412676 0 -0.0590026)
(-0.0428978 0 -0.0578279)
(-0.0428806 0.000481677 -0.0578361)
(-0.0412082 0.00144848 -0.0590236)
(-0.0412189 0.00096636 -0.059026)
(-0.0428709 0.0009633 -0.0578373)
(-0.0428627 0.00144483 -0.0578334)
(-0.0411909 0.00241463 -0.0590041)
(-0.0411995 0.00193152 -0.0590158)
(-0.0428545 0.00192577 -0.0578254)
(-0.0428449 0.00240466 -0.0578147)
(-0.0411718 0.00337976 -0.05897)
(-0.0411821 0.0028975 -0.0589885)
(-0.0428333 0.00287902 -0.0578015)
(-0.0428249 0.00334701 -0.0577826)
(-0.0411262 0.00434168 -0.0589389)
(-0.0411552 0.00386088 -0.058952)
(-0.0428951 0.00385122 -0.0576991)
(-0.0426902 0.00435596 -0.057815)
(-0.0410561 0.00529806 -0.0589095)
(-0.041092 0.00482159 -0.0589254)
(-0.0426275 0.00482607 -0.0578239)
(-0.0425832 0.0052971 -0.0578153)
(-0.0423253 0.00628525 -0.0579057)
(-0.0416295 0.00649747 -0.0583847)