
21909
(
33.04295
32.8636
32.79791
32.87904
32.86806
32.87467
32.80091
32.7991
32.8721
32.81059
32.76672
32.79249
32.6344
32.71227
32.71066
32.75408
32.99862
32.89658
32.86889
33.03298
32.99862
32.89658
32.82498
33.0137
32.91458
32.91291
32.86823
32.87848
32.91457
32.91288
32.93423
32.92379
32.83731
32.86982
32.87179
33.00063
32.99917
32.90861
32.8921
32.96364
32.91034
32.89267
32.94307
32.90865
32.89216
32.79376
32.83257
32.86738
32.83216
32.83966
32.78734
32.79381
32.83262
32.73043
32.76105
32.79789
32.76362
32.74917
32.71734
32.73049
32.7611
32.67214
32.70043
32.72885
32.69399
32.68866
32.66403
32.6722
32.70049
32.63827
32.64881
32.6623
32.61226
32.64845
32.65801
32.63834
32.64888
32.57093
32.61622
32.55086
32.51548
32.64462
32.63524
32.57101
32.61629
32.61772
32.56567
32.55256
32.61052
32.61771
32.56563
32.58899
32.54413
32.52741
32.54875
32.5358
32.52787
32.55546
32.54872
32.53577
32.52381
32.55395
32.50788
32.49372
32.61051
32.514
32.47105
32.61136
32.61058
32.51413
32.49795
32.50785
32.4937
32.48755
32.44873
32.40215
32.53346
32.58488
32.5753
32.54668
32.53353
32.58495
32.44874
32.40215
32.3406
32.38093
32.47277
32.4816
32.48887
32.47442
32.58524
32.56471
32.50248
32.56947
32.58527
32.56472
32.47286
32.48169
32.37674
32.31898
32.3632
32.42392
32.51786
32.44573
32.4715
32.4421
32.40472
32.44671
32.47151
32.44218
32.51788
32.44575
32.36326
32.42398
32.44425
32.42391
32.48249
32.48323
32.47503
32.50091
32.50161
32.45694
32.4449
32.50505
32.50161
32.45696
32.47506
32.50093
32.48254
32.48327
32.44428
32.42397
32.39678
32.3881
32.42088
32.40718
32.37797
32.4624
32.42516
32.48649
32.40182
32.37803
32.46242
32.42518
32.42091
32.4238
32.40808
32.39331
33.10235
32.873
33.03561
33.25988
33.03413
32.867
32.85922
33.03124
32.85291
32.84262
32.95826
33.00445
32.82485
32.80138
32.89609
32.92723
32.77445
32.74549
32.82966
32.86344
32.7949
32.71535
32.68471
32.75875
32.65433
32.62595
32.68101
32.72082
32.60476
32.6561
32.60291
32.64051
32.67136
32.65096
32.66551
32.70021
32.67138
32.65098
32.54448
32.57193
32.62576
32.60835
32.59405
32.62709
32.62578
32.60836
32.50507
32.51984
32.48669
32.54629
32.58688
32.58027
32.62799
32.42108
32.44986
32.58397
32.51609
32.46699
32.42861
32.48525
32.46421
32.46204
32.50257
32.4854
32.46434
32.44884
32.46672
32.39603
32.37021
32.46452
32.43276
32.44902
32.46688
32.39009
32.34921
32.48681
32.43208
32.4268
32.43765
32.48045
32.48294
32.43872
32.43774
32.48054
32.42607
32.46895
32.40371
32.43386
32.40004
32.43153
32.3938
32.40801
32.39242
32.40381
32.43393
32.33903
32.31932
32.34042
32.31129
32.31942
32.36545
32.39775
32.35461
32.32464
32.33913
32.26839
32.32986
32.37494
32.31829
32.29608
32.36228
32.33721
32.41007
32.37445
32.37691
32.39476
32.41014
32.37451
32.36236
32.3373
32.26851
32.32996
32.38269
32.41731
32.38606
32.36044
32.40233
32.4306
32.41734
32.38609
32.3605
32.38276
32.39592
32.38572
32.33344
32.89814
33.09765
33.10953
32.90467
32.93417
32.90969
32.91329
32.93752
33.08374
33.03238
33.01069
33.0434
33.05095
33.11499
33.08377
33.0324
33.08187
33.02477
33.08608
33.04077
33.09346
33.0455
32.97925
32.93503
33.00035
32.89175
32.84881
32.90932
32.95449
32.80598
32.76357
32.82349
32.86552
32.72179
32.68042
32.74135
32.78263
32.69854
32.63921
32.59838
32.6545
32.5588
32.52287
32.56911
32.61069
32.49672
32.49191
32.50405
32.53226
32.57038
32.61694
32.64842
32.58935
32.57046
32.61703
32.51036
32.49288
32.53968
32.60723
32.62226
32.58412
32.62218
32.42927
32.48334
32.569
32.51102
32.38229
32.38525
32.45502
32.41632
32.55248
32.54069
32.56374
32.50915
32.45661
32.518
32.5407
32.56392
32.50929
32.43473
32.43694
32.42416
32.51966
32.387
32.41541
32.44073
32.40924
32.3968
32.37776
32.32938
32.39088
32.41425
32.40147
32.36499
32.36603
32.33514
32.35407
32.39913
32.39061
32.34353
32.37721
32.36515
32.36618
32.34988
32.37061
32.37116
32.40633
32.4494
32.39514
32.34323
32.35514
32.35002
32.37074
32.39352
32.33272
32.36708
32.38768
32.40161
32.3845
32.34823
32.38752
32.39256
32.41614
32.41502
32.38756
32.3926
32.38455
32.34828
32.39833
32.40171
32.39362
33.37811
33.1566
33.01132
33.11892
33.11897
33.01929
33.04519
33.1247
33.04075
33.09534
33.13636
33.13808
33.10045
33.10338
33.08875
33.07947
33.11096
33.05496
33.01556
33.00696
33.04434
32.96855
32.97408
32.93244
32.93008
32.89167
32.85212
32.85362
32.89183
32.81312
32.77285
32.77346
32.81463
32.73009
32.68564
32.68632
32.72999
32.64564
32.64148
32.59963
32.60653
32.56226
32.53254
32.55287
32.57123
32.51248
32.50861
32.58744
32.57952
32.65179
32.59204
32.60613
32.5726
32.64374
32.60582
32.55921
32.5537
32.60764
32.45478
32.49788
32.5095
32.47145
32.55228
32.4671
32.49084
32.53126
32.59428
32.47997
32.51185
32.51575
32.56882
32.47581
32.49977
32.5064
32.5076
32.41241
32.47604
32.50002
32.45344
32.43287
32.39419
32.39361
32.44916
32.44938
32.44147
32.34957
32.4393
32.4112
32.42845
32.35732
32.42533
32.4088
32.42387
32.38629
32.37198
32.42352
32.39995
32.42561
32.40905
32.33744
32.30804
32.33717
32.44455
32.39928
32.41132
32.46
32.42131
32.39725
32.35264
32.41669
32.39755
32.42152
32.39744
32.35286
32.41156
32.32618
32.29535
32.33982
32.41608
32.36193
32.39493
32.36945
32.3932
32.38205
32.44506
32.46783
32.3609
32.38464
32.48148
32.46787
32.36094
32.38213
32.44515
32.39335
32.41622
33.45064
33.18932
33.09005
33.33144
33.17853
33.15948
33.06499
33.08115
33.13531
33.10781
33.01711
33.04323
33.0771
33.04319
32.95557
32.98759
33.00692
32.96965
32.88892
32.92217
32.93266
32.89658
32.83376
32.85811
32.86178
32.82463
32.85187
32.82551
32.7819
32.73713
32.80283
32.83946
32.69387
32.65701
32.72971
32.76331
32.63778
32.6584
32.68861
32.74754
32.72072
32.65038
32.71517
32.70298
32.6447
32.64535
32.61159
32.67008
32.69505
32.67167
32.62228
32.64288
32.63539
32.59935
32.54428
32.58585
32.56108
32.5207
32.46788
32.50132
32.49502
32.5256
32.59243
32.4968
32.55525
32.59054
32.58449
32.60605
32.58816
32.53225
32.51461
32.47353
32.5353
32.53382
32.45925
32.48199
32.46438
32.46446
32.48246
32.50605
32.48534
32.37238
32.3843
32.51309
32.36017
32.38909
32.38148
32.4377
32.36289
32.45173
32.39845
32.49148
32.45109
32.38345
32.45237
32.41173
32.4172
32.45332
32.38677
32.36361
32.43316
32.44285
32.41213
32.41757
32.4312
32.45439
32.42601
32.42843
32.44022
32.43728
32.44491
32.44883
32.43154
32.45472
32.39967
32.41275
32.42149
32.40533
32.45533
32.42606
32.44912
32.40749
32.44554
32.4263
32.44938
32.47978
32.45569
32.39996
32.45998
32.42246
32.45127
32.40823
32.40186
32.47803
32.42375
32.40188
32.46001
33.28414
33.46134
33.19914
33.12035
33.11467
33.19294
33.17904
33.10119
33.08152
33.15892
33.13432
33.05718
33.02953
33.10666
33.07709
32.99977
32.96914
33.04648
33.01555
32.93915
32.9121
32.98539
32.95871
32.8928
32.89778
32.94541
32.94037
32.93338
32.87531
32.90446
32.91557
32.87566
32.79913
32.83685
32.83264
32.78882
32.76352
32.77509
32.74741
32.71337
32.70584
32.74066
32.69772
32.72232
32.62659
32.66622
32.71647
32.68724
32.57245
32.59234
32.65707
32.6468
32.61908
32.59696
32.59083
32.6459
32.62452
32.57897
32.60198
32.61114
32.61399
32.6175
32.59666
32.61223
32.53021
32.56808
32.59129
32.58394
32.56727
32.55313
32.53096
32.53593
32.57826
32.50151
32.4659
32.44673
32.46584
32.47523
32.46969
32.4439
32.50526
32.49892
32.48412
32.51893
32.37623
32.3872
32.40821
32.48934
32.43551
32.40022
32.38395
32.36455
32.38281
32.37545
32.45713
32.38312
32.36396
32.38094
32.47585
32.49129
32.39472
32.33737
32.37562
32.38478
32.44713
32.3596
32.37592
32.46075
32.44591
32.44227
32.37023
32.43396
32.44035
32.44141
32.48655
32.44495
32.35696
32.43443
32.44086
32.42519
32.4276
32.42279
32.46748
32.48628
32.43187
32.43711
32.40936
32.48648
32.48777
32.46414
32.45431
32.48056
32.47052
32.46416
32.45434
32.40956
32.48687
32.43781
32.4232
33.20266
33.46042
33.35671
33.12814
33.17718
33.19365
33.11956
33.10402
33.13096
33.15562
33.08396
33.06244
33.0804
33.10515
33.04503
33.0413
33.02233
33.05422
33.07614
33.07559
32.95667
32.98761
33.04895
33.02164
33.03943
32.98472
32.95725
32.94177
33.01666
33.00385
32.9464
32.9143
32.9761
32.93764
32.87559
32.83637
32.89691
32.85709
32.80009
32.77059
32.82026
32.79724
32.7656
32.79185
32.78329
32.77176
32.74722
32.73137
32.75797
32.71446
32.71506
32.69095
32.72137
32.67003
32.62889
32.67353
32.70683
32.58527
32.57091
32.63715
32.64131
32.61548
32.64614
32.68069
32.63841
32.61615
32.61286
32.63235
32.6479
32.6093
32.50154
32.5334
32.57781
32.54595
32.53138
32.5029
32.51573
32.53654
32.54833
32.5201
32.49412
32.53397
32.53795
32.49709
32.49259
32.48548
32.49478
32.49366
32.50274
32.47856
32.41587
32.47528
32.46354
32.47536
32.46825
32.34775
32.36673
32.44094
32.44452
32.47883
32.46062
32.46785
32.42338
32.4415
32.42366
32.3105
32.3652
32.37701
32.31529
32.33487
32.36942
32.34615
32.35421
32.39323
32.42363
32.40932
32.33638
32.33665
32.35855
32.43598
32.41749
32.4121
32.41217
32.40575
32.35192
32.34569
32.40152
32.44186
32.49809
32.50598
32.49175
32.50741
32.50774
32.43474
32.49316
32.50856
32.44283
32.49923
32.40243
32.41297
33.15979
33.35416
33.41199
33.2255
33.13746
33.15215
33.21822
33.20399
33.18401
33.15918
33.09459
33.11754
33.05744
33.0724
33.13016
33.09764
33.08648
33.08594
33.06333
33.02906
33.11137
33.13166
33.08652
33.08595
33.01969
33.05383
32.99451
32.96163
33.10598
33.07367
33.01974
33.05388
32.98751
32.99772
32.93759
32.96961
32.98948
33.05398
33.04135
32.98755
32.99778
33.0093
32.96895
32.99473
33.01804
32.96049
32.92542
32.88039
32.91014
32.83483
32.78975
32.82062
32.86501
32.74769
32.71426
32.73972
32.77802
32.69675
32.73668
32.75816
32.73058
32.70991
32.7701
32.79873
32.7941
32.79591
32.72915
32.75988
32.75417
32.70164
32.66872
32.69185
32.6477
32.61077
32.70779
32.68595
32.65092
32.74588
32.73646
32.73187
32.68405
32.66433
32.68307
32.62827
32.56414
32.60319
32.634
32.54718
32.57114
32.59021
32.57443
32.55638
32.5792
32.57617
32.58946
32.5824
32.58237
32.55924
32.53931
32.5319
32.54535
32.483
32.51592
32.49814
32.46189
32.41069
32.4267
32.44037
32.41369
32.40188
32.42393
32.40009
32.39176
32.4013
32.4488
32.4957
32.44151
32.36007
32.43674
32.47534
32.42185
32.40153
32.41839
32.49088
32.50091
32.42023
32.38131
32.29651
32.327
32.33215
32.42908
32.41897
32.44046
32.49758
32.34235
32.31434
32.43
32.41994
32.3465
32.35743
32.43169
32.39155
32.48207
32.41795
32.44922
32.47741
32.41174
32.48456
32.4502
32.43266
33.25059
33.43628
33.45035
33.26097
33.23181
33.24444
33.25612
33.24559
33.19127
33.21381
33.23043
33.21081
33.13561
33.16495
33.1867
33.15855
33.06971
33.10377
33.12708
33.09297
32.99697
33.03385
33.05682
33.01929
32.9261
32.96037
32.98108
32.94286
32.8771
32.89705
32.90537
32.87021
32.92288
32.90554
32.84048
32.82325
32.94525
32.97215
32.923
32.90566
32.94519
32.89924
32.93058
32.90221
32.92571
32.85321
32.80611
32.84809
32.89296
32.80154
32.7598
32.71732
32.75588
32.68666
32.71589
32.67474
32.71285
32.7342
32.72654
32.72415
32.76307
32.73454
32.72691
32.71263
32.68233
32.64836
32.73334
32.69223
32.62747
32.66561
32.71982
32.65932
32.69684
32.73885
32.76071
32.72302
32.63186
32.63603
32.73881
32.65504
32.65613
32.63773
32.63352
32.62349
32.57331
32.59399
32.58511
32.59131
32.59263
32.59617
32.60326
32.58122
32.60244
32.59519
32.57413
32.58965
32.58419
32.57528
32.53377
32.52499
32.50691
32.55748
32.54378
32.46846
32.44028
32.4373
32.50055
32.4859
32.43726
32.47738
32.42834
32.39909
32.4479
32.47374
32.42076
32.43089
32.39396
32.41418
32.36244
32.34145
32.4388
32.48657
32.47259
32.40585
32.47257
32.41837
32.33859
32.33726
32.37176
32.39264
32.4161
32.45191
32.45466
32.41907
32.39199
32.3723
32.35634
32.39567
32.43086
32.44114
32.39787
32.42141
32.39927
32.43422
32.35911
32.39217
32.34378
32.41631
32.42262
32.40073
32.32949
33.28439
33.17781
33.2493
33.43122
33.28445
33.17787
33.07154
33.23102
33.19666
33.22744
33.25818
33.25619
33.19672
33.22753
33.20108
33.15482
33.08854
33.25318
33.25135
33.23032
33.24778
33.17908
33.20703
33.23005
33.20208
33.11221
33.1472
33.16812
33.13058
33.0364
33.07504
33.09118
33.05082
33.00994
32.96878
32.95671
32.9968
32.87781
32.91673
32.92765
32.88708
32.81089
32.84152
32.84804
32.81223
32.83583
32.7927
32.78287
32.76653
32.84839
32.86972
32.90574
32.87048
32.88022
32.82648
32.77997
32.79985
32.8444
32.7336
32.68903
32.70292
32.75156
32.64901
32.62107
32.61762
32.65671
32.65592
32.69258
32.72233
32.69326
32.6012
32.65635
32.69307
32.67653
32.66045
32.7117
32.72415
32.74198
32.72483
32.71691
32.67568
32.70305
32.73513
32.70829
32.64677
32.68861
32.65903
32.61732
32.64534
32.61527
32.61199
32.60432
32.63833
32.58558
32.57997
32.60428
32.60054
32.58746
32.55702
32.59192
32.56426
32.56779
32.57084
32.60789
32.55347
32.55371
32.5347
32.56079
32.47678
32.4818
32.53101
32.45728
32.52307
32.49671
32.4874
32.49366
32.50452
32.54143
32.49856
32.47817
32.51667
32.47646
32.42139
32.45652
32.42295
32.50969
32.49988
32.47706
32.46801
32.33045
32.3534
32.39473
32.44863
32.43952
32.39345
32.48904
32.49034
32.50655
32.50822
32.49617
32.49116
32.41519
32.37839
32.41969
32.45819
32.48218
32.45213
32.40449
32.4023
32.4414
32.36478
32.44817
32.34307
32.32211
32.40631
32.40441
32.32635
33.23122
33.06262
33.07162
33.2311
33.08863
33.07042
33.0861
33.15491
33.20001
33.11715
33.20094
33.20306
33.2256
33.22245
33.24976
33.25008
33.22284
33.14443
33.18531
33.18574
33.1449
33.06049
33.10251
33.10305
33.0611
32.97677
33.01857
33.01921
32.97742
32.89403
32.93516
32.93583
32.89468
32.81631
32.85401
32.85461
32.81683
32.75871
32.78311
32.78356
32.7591
32.81801
32.75011
32.75042
32.81834
32.82226
32.85856
32.8167
32.82422
32.86553
32.77346
32.76689
32.71531
32.72066
32.66567
32.62266
32.62536
32.66975
32.6013
32.66018
32.67984
32.66189
32.6027
32.73011
32.7487
32.75177
32.73392
32.66414
32.68738
32.64495
32.61136
32.63384
32.73646
32.70784
32.6646
32.68784
32.59588
32.59552
32.56954
32.6023
32.57047
32.57569
32.54992
32.57727
32.53989
32.56458
32.58019
32.56603
32.58941
32.62141
32.54945
32.58091
32.56679
32.52642
32.50925
32.58849
32.58649
32.5723
32.60329
32.54774
32.60223
32.62732
32.58923
32.56131
32.61092
32.58797
32.56243
32.54406
32.60387
32.52066
32.46008
32.46088
32.4605
32.5463
32.49506
32.49486
32.48879
32.43391
32.42951
32.51144
32.43311
32.46154
32.47051
32.48427
32.52736
32.44237
32.47699
32.37854
32.38746
32.48168
32.41339
32.41725
32.48054
32.54321
32.50362
32.37742
32.46588
32.49264
32.47848
32.4426
32.38708
32.42347
32.51168
32.50309
32.51004
32.51315
32.51045
32.51397
32.37432
32.40461
32.44255
32.47749
32.45551
32.4176
32.40162
32.40171
32.42352
32.50467
32.43275
32.45357
32.40287
32.39658
32.48177
32.45519
33.28451
33.43132
33.24941
33.17793
33.1968
33.25631
33.25833
33.22764
33.24799
33.23058
33.25182
33.25352
33.20276
33.23063
33.20734
33.17943
33.13141
33.16887
33.14759
33.11267
33.05188
33.09212
33.07558
33.03701
32.99746
32.95739
32.96993
33.01106
32.88819
32.92879
32.91738
32.87844
32.81312
32.84907
32.8421
32.8114
32.76721
32.78364
32.79316
32.83625
32.84881
32.81294
32.84676
32.88054
32.85891
32.81703
32.8001
32.84467
32.76723
32.71571
32.7032
32.75181
32.66612
32.62312
32.61796
32.65703
32.6607
32.67839
32.66078
32.60155
32.60176
32.73434
32.75216
32.74944
32.7309
32.61158
32.64527
32.688
32.66459
32.63417
32.59981
32.57261
32.60569
32.57063
32.59611
32.55415
32.57894
32.57919
32.55445
32.58927
32.56022
32.55718
32.52389
32.55901
32.52928
32.52593
32.48104
32.50397
32.54968
32.57145
32.63255
32.59605
32.55082
32.57258
32.56206
32.55249
32.54545
32.59003
32.54679
32.6098
32.59076
32.55453
32.50841
32.48155
32.53228
32.54091
32.58422
32.59352
32.56575
32.55785
32.52735
32.57185
32.5822
32.57557
32.59426
32.51929
32.59139
32.58247
32.56266
32.54562
32.5528
32.61147
32.50639
32.5103
32.53852
32.55916
32.59423
32.52278
32.52186
32.44274
32.43471
32.52832
32.44967
32.44751
32.45528
32.44787
32.35593
32.31808
32.35516
32.4822
32.49596
32.47309
32.43883
32.40188
32.44752
32.50263
32.48644
32.48827
32.49187
32.49579
32.50631
32.39263
32.36772
32.38113
32.40527
32.44442
32.42489
32.44973
32.41413
32.4515
32.37577
32.43326
32.42279
32.47178
32.52431
32.51285
32.473
32.52581
32.43528
32.45161
32.49022
33.26102
33.45039
33.4363
33.25061
33.24564
33.25617
33.24445
33.23182
33.21087
33.23049
33.21382
33.19127
33.16496
33.13562
33.15863
33.18677
33.09311
33.12718
33.10378
33.06972
33.01949
33.057
33.03387
32.99699
32.94307
32.98129
32.96038
32.92611
32.89706
32.87711
32.8704
32.90557
32.82343
32.84066
32.90557
32.92292
32.90237
32.86505
32.89833
32.93074
32.90598
32.87064
32.8482
32.89309
32.82661
32.78008
32.75597
32.80165
32.73369
32.68911
32.6748
32.71293
32.64909
32.62115
32.68237
32.64842
32.65623
32.6935
32.72258
32.69292
32.72533
32.7425
32.72438
32.71188
32.73537
32.71749
32.73697
32.7083
32.70332
32.63963
32.59583
32.56978
32.59579
32.6234
32.55024
32.57607
32.56472
32.53999
32.57744
32.52419
32.54652
32.50954
32.5498
32.55756
32.48121
32.52607
32.57165
32.54993
32.50425
32.5653
32.61024
32.57395
32.61053
32.56556
32.50741
32.49205
32.49997
32.53095
32.55954
32.5418
32.60623
32.63588
32.64988
32.59483
32.60752
32.5691
32.63151
32.61065
32.61432
32.61569
32.58468
32.64692
32.60944
32.55697
32.5486
32.63896
32.59875
32.53525
32.59733
32.51587
32.428
32.46964
32.56267
32.54221
32.56946
32.51393
32.41799
32.50412
32.4524
32.53182
32.43172
32.42793
32.44465
32.44109
32.4429
32.54717
32.50944
32.40797
32.44667
32.45421
32.39922
32.36014
32.34732
32.40975
32.43542
32.41582
32.41066
32.42789
32.4644
32.46232
32.47673
32.49236
32.48685
32.46273
32.53765
32.37815
32.38267
32.47955
32.49541
32.44203
32.49025
32.47384
32.50404
32.48433
32.49811
32.48143
32.50879
32.56254
32.55116
32.48552
32.50956
32.56344
32.50539
32.49197
32.47566
32.51157
32.50909
32.45216
33.2255
33.41199
33.35415
33.15978
33.15214
33.13745
33.20399
33.21821
33.15917
33.18401
33.11753
33.09458
33.09762
33.13014
33.07238
33.05742
33.02903
33.06331
33.08593
33.08647
33.05381
33.01966
32.96159
32.99448
32.96957
32.93755
32.99768
32.98748
32.98944
33.01816
32.98369
32.97242
32.99487
32.94535
32.97227
32.9103
32.96063
32.96996
32.86519
32.94532
32.89938
32.8208
32.85334
32.80624
32.73991
32.77821
32.75993
32.71744
32.73075
32.7101
32.68677
32.71599
32.73398
32.73433
32.74433
32.73431
32.76315
32.72424
32.72665
32.69236
32.73348
32.6657
32.62756
32.73893
32.69695
32.6594
32.7199
32.76078
32.7171
32.67592
32.63633
32.73905
32.73669
32.65908
32.68865
32.64681
32.64541
32.61741
32.63866
32.59856
32.58146
32.60466
32.58022
32.6214
32.58937
32.56603
32.6328
32.59638
32.57265
32.6036
32.59279
32.54713
32.59039
32.5456
32.5525
32.56209
32.50071
32.53151
32.53739
32.50892
32.48215
32.47917
32.62539
32.55947
32.59504
32.60781
32.60303
32.49216
32.47799
32.47258
32.47797
32.49215
32.49946
32.57365
32.6445
32.6145
32.55193
32.55959
32.49061
32.49313
32.42488
32.49387
32.46592
32.446
32.46479
32.39299
32.55138
32.51116
32.5293
32.56363
32.52558
32.48945
32.40366
32.48997
32.389
32.40289
32.50855
32.42255
32.49496
32.52404
32.52053
32.51807
32.429
32.47375
32.36865
32.33225
32.33113
32.40805
32.49546
32.41237
32.45133
32.50855
32.40765
32.33468
32.342
32.41593
32.45519
32.44212
32.40603
32.44063
32.42332
32.4609
32.48815
32.44514
32.46325
32.48709
32.49138
32.45225
32.4873
32.45738
32.49405
32.44858
32.50361
32.46928
32.44449
32.52761
32.53851
32.45063
32.44507
32.52812
32.50463
32.4704
32.49566
32.45006
33.12813
33.3567
33.46041
33.20265
33.10401
33.11955
33.19364
33.17717
33.06243
33.08394
33.15561
33.13095
33.04128
33.04501
33.10513
33.08039
33.07557
33.07611
33.0542
33.02232
33.11154
33.13185
33.07575
33.07628
33.02162
33.04893
32.9876
32.95666
33.10616
33.07386
33.02183
33.04912
32.95725
32.98472
33.03942
33.01664
32.94176
33.05417
33.04155
33.03967
33.01687
33.00953
32.96919
32.97625
33.004
32.92566
32.88063
32.89707
32.9378
32.83509
32.79001
32.82046
32.85727
32.74795
32.71453
32.78354
32.79746
32.69701
32.73699
32.73168
32.75825
32.77014
32.79595
32.79415
32.79878
32.77057
32.79641
32.74571
32.72166
32.71478
32.70171
32.75423
32.75993
32.7292
32.61084
32.64777
32.69191
32.66878
32.74596
32.65099
32.68602
32.70789
32.73655
32.73227
32.72337
32.63222
32.6835
32.62368
32.63367
32.63789
32.65636
32.65535
32.59169
32.5854
32.59439
32.57388
32.59315
32.61568
32.61242
32.59275
32.58639
32.58024
32.58763
32.60058
32.60441
32.58135
32.58883
32.59363
32.5818
32.60299
32.56752
32.56409
32.59167
32.55661
32.57049
32.58892
32.58693
32.56889
32.56537
32.589
32.62702
32.60197
32.61078
32.56114
32.61026
32.59122
32.62666
32.60444
32.58851
32.60382
32.56575
32.59351
32.58424
32.54096
32.55787
32.60664
32.63633
32.56784
32.59546
32.58466
32.61564
32.61428
32.61057
32.63132
32.64678
32.56107
32.55255
32.61529
32.64491
32.57427
32.55092
32.50863
32.53399
32.49421
32.49016
32.50589
32.62032
32.55927
32.50813
32.57804
32.57424
32.60912
32.57457
32.57154
32.53407
32.55094
32.53371
32.59659
32.54567
32.53571
32.55263
32.44585
32.47963
32.49699
32.39991
32.43715
32.51683
32.47134
32.51775
32.5343
32.54453
32.43192
32.49374
32.39468
32.49912
32.52665
32.313
32.3755
32.49839
32.39965
32.34745
32.37658
32.5246
32.56935
32.51842
32.51391
32.44218
32.45303
32.48656
32.46365
32.48424
32.50038
32.49804
32.46103
32.43322
32.51438
32.50194
32.4902
32.49924
32.50698
32.48934
32.51993
32.51993
32.50854
32.54156
32.50551
32.4717
32.46059
32.44236
32.43752
32.47228
32.46122
32.50985
32.54311
32.52212
32.5219
33.28414
33.12035
33.19914
33.46134
33.28432
33.12053
33.09021
33.33159
33.11467
33.10119
33.17904
33.19294
33.11486
33.10139
33.06516
33.08131
33.08152
33.05718
33.13431
33.15892
33.08172
33.05739
33.01729
33.0434
33.02953
32.99977
33.07709
33.10666
33.02975
33.00001
32.95576
32.98777
32.96914
32.93915
33.01555
33.04648
32.96939
32.93941
32.88912
32.92237
32.9121
32.8928
32.95871
32.98539
32.85832
32.91237
32.89309
32.83398
32.89778
32.93339
32.94037
32.94541
32.89808
32.9337
32.87902
32.85203
32.82573
32.87567
32.91557
32.90446
32.87532
32.83686
32.79913
32.78882
32.83265
32.71338
32.74742
32.7751
32.76353
32.72233
32.69773
32.74068
32.70586
32.68726
32.71649
32.66624
32.62661
32.77217
32.74764
32.68776
32.71697
32.64683
32.65709
32.59236
32.57247
32.71549
32.69138
32.64739
32.65762
32.67043
32.62928
32.64633
32.61951
32.66557
32.58565
32.57132
32.61162
32.62498
32.61554
32.63848
32.68077
32.64621
32.61627
32.63927
32.59719
32.61273
32.60944
32.648
32.63244
32.61294
32.61625
32.54616
32.57797
32.53352
32.50167
32.53155
32.62886
32.56476
32.54723
32.57898
32.54751
32.5748
32.59068
32.57154
32.54863
32.57602
32.56881
32.53736
32.54909
32.58946
32.57656
32.57937
32.55639
32.58233
32.59686
32.60399
32.59088
32.57788
32.57367
32.57467
32.58361
32.58918
32.57516
32.57628
32.56864
32.54636
32.58331
32.53344
32.54333
32.55718
32.50674
32.52478
32.5545
32.53554
32.53527
32.54504
32.4766
32.45719
32.53095
32.48163
32.47849
32.45919
32.45349
32.4385
32.50167
32.52149
32.46102
32.49484
32.52419
32.52529
32.48867
32.49471
32.49496
32.51147
32.42957
32.43393
32.52837
32.57317
32.49784
32.51403
32.59101
32.61113
32.5525
32.5453
32.56232
32.58211
32.61079
32.55841
32.59466
32.61454
32.46944
32.4278
32.51558
32.59702
32.53499
32.46578
32.39287
32.46469
32.44591
32.41967
32.40906
32.46985
32.39715
32.40734
32.51579
32.53405
32.57152
32.57452
32.60906
32.57419
32.48851
32.43465
32.5468
32.53678
32.48594
32.4852
32.40368
32.39019
32.40367
32.4852
32.50136
32.41807
32.39309
32.3358
32.37587
32.35964
32.44508
32.47647
32.42176
32.45386
32.44386
32.42076
32.26922
32.37661
32.33555
32.23409
32.21031
32.43415
32.40741
32.27636
32.38336
32.43488
32.31152
32.25611
32.31405
32.43667
32.45529
32.49031
32.54453
32.44434
32.44161
32.49179
32.40828
32.48892
32.50572
32.49714
32.41378
32.39146
32.48785
32.45859
32.38024
32.44831
32.32536
32.30832
32.38543
32.38665
32.48278
32.45759
32.45953
32.44234
32.48598
32.46059
32.3844
32.45275
32.36168
32.44054
32.38775
32.40052
32.42218
32.3914
32.43453
32.40926
32.45694
32.44607
32.44389
32.43631
32.45999
32.44882
32.43797
32.41287
32.36504
32.44363
32.38641
32.33106
32.3638
32.39145
32.40306
32.44455
32.43661
32.42192
32.37881
32.4432
32.42586
32.35655
32.37979
32.44432
32.44666
32.43895
32.4064
32.38946
33.45078
33.18946
33.11906
33.37825
33.17867
33.15963
33.12484
33.11911
33.13546
33.10797
33.13653
33.13823
33.07727
33.04336
33.07965
33.11114
33.0071
32.96985
33.00716
33.04453
32.93286
32.8968
32.93031
32.96877
32.86201
32.82486
32.8539
32.89208
32.78214
32.73738
32.77379
32.81493
32.69414
32.6573
32.68669
32.73034
32.63809
32.65884
32.60693
32.64602
32.65039
32.64471
32.70299
32.71517
32.65095
32.64531
32.5533
32.57165
32.67009
32.6116
32.64536
32.67169
32.69506
32.59936
32.6354
32.64289
32.62229
32.52072
32.5611
32.58586
32.5443
32.52562
32.49504
32.50133
32.4679
32.49682
32.59245
32.58452
32.59057
32.55528
32.61463
32.61814
32.59149
32.55615
32.56794
32.53096
32.5154
32.6068
32.50158
32.57832
32.53598
32.53099
32.55317
32.44676
32.46593
32.46973
32.47528
32.4659
32.50378
32.51667
32.47668
32.46721
32.49417
32.49711
32.53795
32.53401
32.49565
32.49871
32.4936
32.50011
32.48523
32.49366
32.49478
32.48546
32.49257
32.50271
32.54042
32.53309
32.49442
32.50443
32.48294
32.46186
32.49807
32.51582
32.4849
32.46396
32.45319
32.46507
32.47678
32.42668
32.41068
32.40186
32.41367
32.44033
32.46982
32.44171
32.41607
32.44257
32.4479
32.39909
32.42833
32.47737
32.43726
32.50452
32.47814
32.4985
32.54142
32.48135
32.46194
32.43319
32.39599
32.4067
32.5075
32.4351
32.46383
32.45903
32.51903
32.47607
32.41328
32.48152
32.38735
32.37845
32.47693
32.41716
32.5087
32.51283
32.41771
32.48572
32.4346
32.44266
32.5218
32.44743
32.44958
32.52819
32.56503
32.54483
32.45468
32.53302
32.43166
32.53175
32.45233
32.44104
32.44461
32.42789
32.5537
32.51378
32.43744
32.5372
32.40363
32.42252
32.50853
32.40287
32.38897
32.48993
32.55315
32.53623
32.39553
32.49612
32.44584
32.51682
32.43714
32.3999
32.49698
32.47962
32.39472
32.33754
32.33552
32.39959
32.49305
32.4358
32.30484
32.42387
32.45593
32.43103
32.30234
32.22012
32.21075
32.22011
32.30234
32.33272
32.44137
32.44595
32.42297
32.34094
32.36632
32.41997
32.42851
32.40423
32.43051
32.47335
32.39474
32.38768
32.34311
32.34461
32.3621
32.39082
32.26721
32.30414
32.31963
32.29967
32.28615
32.36188
32.37316
32.37816
32.33608
32.36965
32.38118
32.35554
32.35691
32.27828
32.30138
32.36978
32.34957
32.38902
32.35073
32.37568
32.35608
32.30835
32.37189
32.35455
32.39917
32.3208
32.37617
32.38371
32.38062
32.40622
32.41003
32.40428
32.41946
32.42473
32.41156
32.40571
32.38339
32.4092
32.38037
32.38772
32.40436
32.32579
32.35604
32.37912
32.40016
32.39183
32.33476
32.33192
32.36483
32.34491
32.3589
32.35366
32.3764
32.36052
32.33624
32.90468
33.10953
33.09765
32.89814
32.93752
32.91329
32.90969
32.93417
33.04341
33.01069
33.03238
33.08375
33.04093
33.09555
33.04361
33.01089
33.10359
33.08896
33.08631
33.041
33.07819
33.05519
33.0158
33.00061
33.04574
32.97434
32.93272
32.90961
32.95476
32.86583
32.89197
32.85245
32.82382
32.81348
32.77323
32.74172
32.78298
32.73049
32.68605
32.65491
32.69893
32.6419
32.60006
32.56957
32.61112
32.53275
32.56269
32.53297
32.50455
32.51292
32.50907
32.5109
32.49341
32.64374
32.57261
32.60614
32.59205
32.6518
32.55922
32.60583
32.60764
32.55371
32.49789
32.45479
32.47146
32.50951
32.53127
32.49085
32.4671
32.55228
32.589
32.53314
32.51283
32.51665
32.53556
32.47354
32.45927
32.53383
32.53532
32.47477
32.4606
32.4464
32.43399
32.41344
32.48248
32.46448
32.4644
32.482
32.50606
32.52016
32.44527
32.38575
32.51447
32.43552
32.48935
32.40821
32.38721
32.37623
32.48016
32.41763
32.36644
32.38457
32.40153
32.44452
32.44093
32.36673
32.34775
32.46825
32.47883
32.42599
32.40233
32.44312
32.42618
32.46295
32.47607
32.42327
32.43957
32.49838
32.49531
32.43878
32.34144
32.36243
32.40585
32.47258
32.48656
32.46798
32.47703
32.49986
32.50968
32.42294
32.48052
32.37741
32.5036
32.54318
32.33434
32.36167
32.48586
32.38309
32.36354
32.39772
32.45174
32.36006
32.40787
32.44742
32.39144
32.4128
32.44288
32.40797
32.50943
32.54715
32.40671
32.35758
32.44999
32.41565
32.38922
32.44424
32.49496
32.42901
32.51807
32.52053
32.52403
32.3527
32.38615
32.50317
32.4385
32.36614
32.5343
32.51775
32.47135
32.43192
32.54452
32.4248
32.44971
32.41919
32.38316
32.31883
32.34629
32.23408
32.33554
32.3766
32.26921
32.2103
32.36632
32.34093
32.42295
32.44595
32.44137
32.41996
32.45021
32.35732
32.35599
32.33722
32.37333
32.31156
32.29733
32.29732
32.31156
32.32356
32.27975
32.295
32.32128
32.33832
32.33264
32.23888
32.23003
32.29928
32.30414
32.27291
32.32795
32.32351
32.30216
32.33446
32.33653
32.26062
32.27532
32.28083
32.3406
32.18208
32.27219
32.33153
32.37596
32.26437
32.29978
32.3123
32.2541
32.21098
32.2787
32.29077
32.29754
32.32161
32.31052
32.32273
32.28219
32.29818
32.29603
32.30524
32.31272
32.29181
32.33903
32.35288
32.33381
32.35555
32.34587
32.36006
32.29066
32.30646
32.33696
32.32478
32.3684
32.38279
32.38083
32.37063
32.38483
32.39561
32.34088
32.32908
32.32809
32.35713
32.32118
33.26008
33.15023
33.02581
33.03582
33.03433
33.03291
33.04936
33.03145
33.05115
33.11519
32.95849
33.00467
33.05589
33.08209
33.02501
32.89635
32.92747
32.97951
32.93531
32.82996
32.86372
32.89205
32.84913
32.75908
32.79521
32.80631
32.76393
32.68139
32.72117
32.72217
32.68082
32.60335
32.64091
32.63964
32.59882
32.54497
32.5724
32.55927
32.52336
32.50562
32.52036
32.49724
32.49246
32.60696
32.56767
32.57038
32.58935
32.64842
32.61694
32.62218
32.58412
32.62226
32.60723
32.53968
32.51102
32.569
32.48334
32.42927
32.41633
32.45503
32.38525
32.3823
32.50915
32.56374
32.5407
32.55249
32.45661
32.59525
32.48101
32.4253
32.52071
32.47582
32.50761
32.5064
32.49978
32.44938
32.44917
32.39361
32.3942
32.44147
32.48684
32.37395
32.41292
32.43005
32.38149
32.38909
32.36018
32.3629
32.4377
32.40215
32.38602
32.45337
32.38553
32.37682
32.45713
32.4913
32.47585
32.38094
32.36397
32.38312
32.47044
32.4262
32.42409
32.38783
32.44996
32.3153
32.37702
32.36521
32.31051
32.33488
32.40153
32.42186
32.47535
32.50092
32.49089
32.41839
32.42451
32.42225
32.34276
32.35967
32.33673
32.39905
32.45344
32.47573
32.46
32.42389
32.40154
32.47084
32.49817
32.51335
32.51443
32.50179
32.48415
32.48781
32.50225
32.51383