/*--------------------------------*- C++ -*----------------------------------*\
| =========                 |                                                 |
| \\      /  F ield         | OpenFOAM: The Open Source CFD Toolbox           |
|  \\    /   O peration     | Version:  5.x                                   |
|   \\  /    A nd           | Web:      www.OpenFOAM.org                      |
|    \\/     M anipulation  |                                                 |
\*---------------------------------------------------------------------------*/
FoamFile
{
    version     2.0;
    format      ascii;
    class       volScalarField;
    location    "119/tissue";
    object      T;
}
// * * * * * * * * * * * * * * * * * * * * * * * * * * * * * * * * * * * * * //

dimensions      [0 0 0 1 0 0 0];

internalField   nonuniform List<scalar> 
87936
(
33.00048
33.30247
33.3219
33.2531
32.98854
33.28151
33.30139
33.23131
32.97015
33.23781
33.25709
33.18665
32.9631
33.17892
33.19641
33.1252
33.10532
33.12437
32.93209
33.02472
33.04866
32.83871
32.93929
32.97743
32.77723
32.75539
32.91666
32.73276
33.46621
33.95434
34.33985
34.65693
34.71458
34.52318
34.21652
33.53791
33.13975
33.439
33.91084
34.30701
34.61576
34.67383
34.48279
34.18035
33.52189
33.16179
33.2744
33.79599
34.24111
34.53137
34.59025
34.39804
34.10134
33.48687
33.13616
33.63039
34.16065
34.41884
34.47917
34.28644
33.99171
33.47865
33.03397
33.49331
34.06861
34.2894
34.35221
34.16868
33.87158
33.4127
32.93772
33.37057
33.94694
34.15009
34.21736
34.04044
33.74468
33.31995
32.84444
33.25692
33.80509
34.00187
34.07306
33.91325
33.60549
33.21511
32.75277
33.15099
33.65193
33.85363
33.90759
33.77981
33.44709
33.0958
32.66898
33.06246
33.49095
33.69613
33.73323
33.62132
33.22613
32.95529
33.00705
33.33126
33.54374
33.58252
33.46374
33.07973
32.74055
32.88631
33.15543
33.39544
33.43441
33.3096
32.95101
32.58748
32.74437
32.96868
33.25382
33.29469
33.15072
32.87564
32.46425
32.60408
32.8351
33.10965
33.15849
32.93821
32.75201
32.38475
32.38629
32.73711
32.9418
33.00916
32.7899
32.61807
32.26983
32.57273
32.7302
32.77216
32.65564
32.46605
32.48362
32.60227
32.6285
32.55752
32.26562
32.23979
32.35018
32.14682
33.77618
34.64865
35.29073
35.91083
36.15691
36.16703
36.00771
35.56112
35.014
34.29834
33.40574
33.74842
34.59927
35.22945
35.80405
36.0234
36.03176
35.89731
35.48966
34.96313
34.27695
33.38349
33.69131
34.52139
35.11696
35.63232
35.82436
35.83233
35.71362
35.3608
34.87405
34.23139
33.34192
33.61579
34.41754
34.98745
35.47053
35.61412
35.6239
35.55385
35.21348
34.7695
34.14742
33.28056
33.52871
34.30235
34.85429
35.24658
35.45775
35.48812
35.40642
35.06438
34.65158
34.04161
33.20287
33.43442
34.17976
34.72077
35.07663
35.28623
35.31325
35.24167
34.91135
34.52359
33.92069
33.1125
33.33606
34.0427
34.57625
34.91572
35.13156
35.13722
35.04533
34.75572
34.36487
33.77018
33.00559
33.2349
33.89421
34.43218
34.76346
34.94642
34.96654
34.87037
34.60625
34.19899
33.53674
32.86255
33.16065
33.75689
34.29166
34.6163
34.78674
34.80376
34.72367
34.4644
34.03245
33.38254
32.74694
33.04466
33.63565
34.15102
34.46904
34.65617
34.67663
34.58421
34.32956
33.88195
33.231
32.66631
32.85648
33.50051
33.99482
34.32223
34.5228
34.54912
34.44168
34.18889
33.73634
33.09787
32.70025
33.31298
33.82997
34.18483
34.38086
34.41394
34.29552
34.04782
33.58215
32.97976
32.54073
33.09795
33.66017
34.04054
34.22737
34.26507
34.14593
33.88226
33.43319
32.89003
32.44152
32.9314
33.50617
33.87662
34.07296
34.10805
33.995
33.70818
33.28894
32.77266
32.77716
33.35025
33.7026
33.90752
33.938
33.82545
33.53504
33.09712
32.55169
32.71746
33.1515
33.48601
33.69033
33.72016
33.60722
33.34544
32.86904
32.38074
32.28393
32.72086
33.15516
33.3213
33.34403
33.24929
32.98849
32.61588
32.42709
32.68174
32.93483
32.9722
32.85383
32.54694
32.13246
31.98346
32.34279
32.44383
32.47715
32.46714
32.23574
32.07602
32.11302
31.97383
33.33518
34.26815
35.15924
36.01358
36.38917
35.74952
34.65195
33.72527
33.31754
34.19655
35.11013
35.9089
36.20711
35.67281
34.60886
33.71585
33.2709
34.07233
35.01626
35.7344
35.98802
35.54949
34.52588
33.71004
33.95803
34.90047
35.5557
35.80203
35.39116
34.42394
33.57775
33.84258
34.77814
35.42789
35.65571
35.24871
34.31528
33.45167
33.72397
34.65114
35.26926
35.55635
35.43702
35.08295
34.20233
33.32926
33.60244
34.5165
35.13873
35.42215
35.28011
34.87681
34.08198
33.21262
33.48307
34.3832
35.00641
35.30472
35.14141
34.69174
33.96072
33.09992
33.36225
34.24937
34.87821
35.19508
35.02063
34.54528
33.83748
32.98351
33.23973
34.0972
34.73958
35.01665
35.13537
34.88929
34.40522
33.70147
32.86324
33.12322
33.92409
34.59905
34.88871
35.02752
34.77691
34.25724
33.53336
32.74018
33.03746
33.76566
34.38464
34.7849
34.98346
34.89773
34.66057
34.11062
33.35342
32.63361
32.86462
33.615
34.22643
34.65635
34.83847
34.90222
34.76806
34.52215
33.96756
33.19447
32.71231
33.46329
34.08095
34.54891
34.73712
34.85667
34.77603
34.65689
34.34317
33.81295
33.0417
32.5529
33.28656
33.92738
34.42639
34.64567
34.72694
34.72387
34.70266
34.5484
34.16557
33.63834
32.89728
32.43546
33.06755
33.73358
34.18304
34.4557
34.57308
34.5602
34.54247
34.3788
33.96365
33.43059
32.82384
32.72521
33.35331
33.81336
34.20452
34.34177
34.34366
34.30336
34.0111
33.62451
33.0169
32.39414
32.33954
32.90631
33.42139
33.7685
33.92848
33.94725
33.86497
33.63127
33.227
32.64791
32.51842
33.00241
33.35874
33.52538
33.5466
33.4669
33.19309
32.76021
32.23776
32.06544
32.52963
32.91633
33.08325
33.11824
33.02088
32.68881
32.39089
32.03918
32.39519
32.5688
32.68074
32.50521
32.3064
31.93328
32.16264
32.21912
32.05822
34.37459
35.6769
36.41316
36.00648
35.01759
33.73633
34.29694
35.59353
36.23198
35.90072
34.95835
33.70862
34.17688
35.44582
36.01354
35.72649
34.85306
33.66246
34.09723
35.27943
35.8001
35.54409
34.73649
33.58363
34.00055
35.12257
35.66675
35.40636
34.60835
33.48591
33.88644
34.91877
35.48999
35.24579
34.46616
33.38509
33.76791
34.73767
35.35997
35.11182
34.32649
33.28119
33.6444
34.5903
35.24642
34.98325
34.18507
33.17136
33.50884
34.45186
35.13168
34.86185
34.03085
33.05083
33.37658
34.31972
34.96825
35.14108
34.73857
33.88665
32.93313
33.25271
34.18507
34.82236
35.01162
34.60614
33.74262
32.82738
33.13399
34.03568
34.72041
34.93801
34.46993
33.56775
32.71889
32.95428
33.88933
34.58818
34.81351
34.26556
33.39058
32.81321
33.74074
34.47274
34.82476
34.67407
34.11071
33.25026
32.65943
33.56487
34.34092
34.74649
34.55566
33.9577
33.0902
32.52605
33.29888
34.09696
34.54877
34.72453
34.39119
33.75103
32.94712
32.9914
33.75086
34.30581
34.61285
34.44417
34.0963
33.39235
32.60792
32.70209
33.37312
33.99882
34.28936
34.5612
34.43424
34.16592
33.679
32.975
32.25304
32.23959
32.92091
33.54684
33.99055
34.21666
34.34798
34.31828
34.31491
34.13983
33.77218
33.27508
32.59854
32.50294
33.10401
33.55112
33.85813
34.06473
34.07683
34.01182
33.71693
33.35991
32.80025
32.15379
32.06612
32.62813
33.14
33.42591
33.60162
33.63162
33.53408
33.28196
32.93582
32.44571
32.13242
32.59781
32.93215
33.10144
33.15211
33.04768
32.81401
32.4135
32.10862
32.37326
32.52099
32.63564
32.48419
32.30827
31.92076
31.85875
32.02072
32.07473
31.98854
34.24717
35.64115
36.24193
34.9047
33.63899
34.22191
35.56815
36.09455
34.87297
33.61178
34.16357
35.45451
35.9062
34.81298
33.55891
34.0817
35.31653
35.72796
34.72789
33.48523
33.98422
35.19741
35.58618
34.62482
33.39754
33.87738
35.05966
35.43252
34.51118
33.30413
33.75742
34.92192
35.26908
34.38643
33.2076
33.61992
34.7875
35.30632
35.07995
34.23862
33.08667
33.47659
34.54966
35.18471
34.9358
34.05914
32.96781
33.33879
34.37946
35.07291
34.80506
33.88812
32.87187
33.15668
34.22181
34.96596
34.67307
33.69227
33.02501
34.07098
34.88426
34.55615
33.50622
32.90176
33.94629
34.76218
34.43777
33.38896
32.77838
33.82616
34.59978
34.8096
34.31958
33.26841
32.64528
33.64662
34.48145
34.72259
34.1082
33.12275
32.47584
33.36275
34.30647
34.58712
33.89951
32.97519
33.07449
34.04138
34.55459
34.3015
33.59287
32.64889
32.63815
33.60319
34.22845
34.46143
33.99137
33.12654
32.30239
33.13049
33.92193
34.31942
34.45339
34.14711
33.54678
32.77123
32.73286
33.45506
34.01361
34.35449
34.18225
33.81826
33.15018
32.35385
32.25658
32.9366
33.58468
33.99238
34.18973
34.30768
34.30567
34.27005
34.1055
33.8539
33.32961
32.66631
32.51226
33.10161
33.56014
33.86321
33.99408
34.00322
33.95905
33.69507
33.3579
32.81491
32.14914
32.00076
32.55762
33.03558
33.35036
33.50105
33.52123
33.45625
33.19851
32.75728
32.34939
31.99884
32.49242
32.81345
32.97315
32.99468
32.91161
32.62626
32.31364
31.9103
32.26552
32.37528
32.39844
32.30375
32.08814
31.8241
31.90508
33.86565
35.56409
36.15585
34.69605
33.84058
35.50084
36.028
34.663
33.79155
35.38167
35.84685
34.59461
33.72366
35.24291
35.67271
34.50004
33.64375
35.10497
35.53466
34.38442
33.55593
34.95904
35.37179
34.23856
33.4472
34.70323
35.19726
33.99929
33.35463
34.53032
35.30373
35.01959
33.87052
33.2397
34.38095
35.19904
34.8958
33.74179
33.11969
34.23852
35.08635
34.76859
33.63653
33.00761
34.12668
34.96709
34.64338
33.54238
32.88804
34.01485
34.88797
34.53835
33.42558
32.77484
33.89053
34.76996
34.42187
33.29605
33.70451
34.59985
34.84309
34.28832
33.09956
33.43766
34.47706
34.74784
34.05653
32.93449
33.29587
34.29774
34.6151
33.85422
32.82191
33.01583
34.02743
34.6009
34.33867
33.55895
32.47644
32.63314
33.6185
34.38419
34.06708
33.14336
32.23412
33.17896
34.05016
34.33133
33.65833
32.76444
32.78981
33.63454
34.18041
34.37966
33.97125
33.24747
32.34958
32.32689
33.19099
33.8662
34.29785
34.0861
33.56729
32.78289
32.70426
33.42987
33.95883
34.2712
34.10766
33.75757
33.12232
32.29816
32.16472
32.87889
33.5018
33.90655
34.0954
34.21692
34.21619
34.19567
33.99082
33.74579
33.25309
32.59684
32.37244
33.00194
33.43036
33.72971
33.87909
33.88365
33.84511
33.55202
33.23804
32.68321
32.01709
32.38976
32.85468
33.13496
33.33017
33.36683
33.25
33.00372
32.61135
32.05547
32.25497
32.50861
32.72319
32.76123
32.59234
32.3727
31.94785
31.8764
32.06475
32.12377
32.00062
33.66543
34.94861
36.34789
35.72366
34.27292
33.63705
34.91128
36.19609
35.6486
34.24869
33.58596
34.83674
35.99586
35.52001
34.1931
33.52197
34.74443
35.79326
35.37226
34.1176
33.44512
34.64948
35.66086
35.25472
34.02845
33.34674
34.54996
35.50839
35.12209
33.91797
33.26614
34.44647
35.38552
35.00901
33.79575
34.33343
35.26084
34.89118
33.62904
34.20836
35.1616
34.77997
33.50246
34.04489
35.04404
34.6489
33.37583
33.80085
34.92024
34.50879
33.23727
33.66266
34.77649
34.32424
33.12223
33.52265
34.60812
34.91422
34.13119
32.99664
33.40452
34.49497
34.81351
33.99163
32.85857
33.28267
34.38942
34.74629
33.87545
32.72302
33.08206
34.21715
34.57699
33.7006
32.77592
33.84566
34.58461
34.29062
33.30489
32.39881
33.52087
34.37778
34.02496
32.97955
33.09064
34.03458
34.35309
33.61715
32.58905
32.63497
33.59716
34.29363
34.00968
33.14682
32.20686
33.10931
33.9626
34.23365
33.68205
32.74441
32.67887
33.52726
34.14609
33.87094
33.15244
32.25235
32.13465
32.98575
33.7295
34.19308
33.95373
33.39877
32.63262
32.52618
33.23226
33.76287
34.10743
34.16713
33.93428
33.49581
32.85667
32.08808
31.95289
32.6579
33.23426
33.70099
33.8952
34.01642
34.0536
33.97085
33.78497
33.45604
32.9866
32.33813
32.02058
32.63087
33.10694
33.39527
33.53758
33.55572
33.49207
33.27393
32.91245
32.37481
31.96317
32.46502
32.77468
32.91887
32.95511
32.86499
32.59619
32.24811
31.81423
32.11418
32.2542
32.28215
32.22055
31.98759
33.54624
34.6503
36.16393
35.54118
33.90189
33.52265
34.61525
36.04101
35.47821
33.87963
33.47497
34.53519
35.86235
35.35782
33.82799
33.40467
34.39916
35.66429
35.1942
33.75882
33.30949
34.2491
35.52002
35.0554
33.65847
33.21249
34.11447
35.35462
34.81368
33.55274
33.12139
34.00157
35.21856
34.63672
33.43182
33.89999
35.08734
34.50887
33.28786
33.78338
34.96069
34.38675
33.15842
33.65576
34.80073
35.14846
34.26187
33.03464
33.531
34.67321
35.0197
34.13932
32.91815
33.41133
34.56964
34.93658
34.00183
32.81355
33.22711
34.44549
34.83139
33.7745
33.08828
34.32126
34.72754
33.63026
32.92989
34.1348
34.60632
33.4763
32.78315
33.91148
34.75215
34.40105
33.35005
33.52748
34.51637
34.12945
32.9766
33.20176
34.21031
34.52675
33.76175
32.64827
32.81329
33.91662
34.28929
33.35528
32.4285
33.50899
34.265
33.94166
33.00544
33.04716
33.90881
34.22808
33.52997
32.54385
32.5361
33.47767
34.17455
33.86637
33.03679
32.05888
32.98355
33.79804
34.08888
33.4285
32.58849
32.52864
33.33676
33.90665
34.14034
33.68092
32.91259
32.01997
32.75397
33.43003
33.9092
34.11877
33.72248
33.1403
32.30821
32.13186
32.82408
33.42884
33.83548
34.0454
34.13244
34.13099
34.10319
33.95707
33.67696
33.18162
32.54534
32.27249
32.8816
33.29703
33.53997
33.74204
33.75502
33.68617
33.43704
33.06968
32.57262
31.91056
32.23117
32.58075
32.94334
33.11725
33.13168
33.05207
32.81805
32.42505
31.88793
31.88061
32.21079
32.35212
32.36541
32.31295
32.12612
33.58821
34.42825
35.61175
36.30249
34.86908
33.95304
33.56845
34.40263
35.54932
36.1594
34.83535
33.93424
33.52737
34.34887
35.4346
35.96629
34.76663
33.88948
33.46707
34.27726
35.30078
35.77502
34.68052
33.82538
33.39123
34.19475
35.17638
35.63676
34.5867
33.74681
33.30312
34.097
35.05614
35.51283
34.47541
33.65566
33.20614
33.98164
34.92822
35.39761
34.3403
33.55691
33.1009
33.82709
34.7894
35.24633
34.20534
33.45018
32.99037
33.64774
34.61714
35.09923
34.05883
33.3195
33.50614
34.44853
34.97735
33.91471
33.17611
33.37177
34.30491
34.84718
33.77448
33.04328
33.24598
34.16025
34.73641
33.63242
32.91385
33.12145
34.03007
34.93657
34.58138
33.42692
32.78636
32.98143
33.91119
34.83323
34.47192
33.29355
32.67178
32.81244
33.7603
34.74412
34.35051
33.13587
32.65427
33.53934
34.57838
34.15962
33.00161
33.2412
34.27714
34.62744
33.77888
32.6419
32.86872
34.03016
34.43651
33.39866
32.47265
33.63342
34.4362
34.09018
33.07908
33.2184
34.17668
33.78032
32.65281
32.75614
33.8107
34.17991
33.282
32.31226
33.38814
34.1565
33.81821
32.88366
32.87162
33.7734
34.10055
33.35309
32.35503
32.33364
33.29088
33.93838
34.1844
33.6651
32.82129
32.75483
33.56028
34.09334
33.81377
33.166
32.26098
32.11696
32.91566
33.6209
34.07867
33.84622
33.29286
32.58185
32.38428
33.04598
33.61558
33.93217
34.11564
34.04918
33.79799
33.33554
32.71441
31.92705
32.4305
32.98934
33.38885
33.69902
33.82061
33.80106
33.79041
33.60818
33.24555
32.68686
32.0527
32.27317
32.6592
33.02244
33.15
33.15184
33.11677
32.90221
32.52042
31.97994
32.03393
32.28212
32.39492
32.41675
32.35109
32.15727
31.82276
33.64183
34.48367
35.39941
36.33432
35.92914
34.94386
33.9831
33.30269
33.62871
34.46167
35.34835
36.1901
35.84171
34.91073
33.97476
33.30103
33.58453
34.41147
35.25433
35.99932
35.70019
34.84329
33.93944
33.51448
34.3382
35.14317
35.811
35.54536
34.75465
33.87647
33.43105
34.24847
35.02993
35.68955
35.42956
34.65438
33.79371
33.33773
34.14706
34.91078
35.55281
35.29555
34.54499
33.69836
33.23722
34.03687
34.78497
35.43287
35.1741
34.42769
33.5944
33.13157
33.91749
34.64578
35.30253
35.04657
34.29775
33.4842
33.02303
33.77952
34.49842
35.18823
34.91512
34.14602
33.37136
32.91262
33.56662
34.36019
35.05787
34.78225
33.98793
33.2562
33.43948
34.20881
34.91739
34.53599
33.8494
33.09946
33.30564
34.0735
34.82221
34.39131
33.71713
32.96805
33.17833
33.94117
34.70595
34.2603
33.58653
32.839
33.05601
33.7885
34.57144
34.93065
34.12612
33.42213
32.71492
32.89649
33.64757
34.46914
34.84318
33.99425
33.23015
32.58293
32.76245
33.46263
34.28229
34.7008
33.78489
33.09195
33.08928
33.95168
34.42896
33.4477
32.7469
32.70684
33.61959
34.52195
34.15456
33.0488
33.24597
34.26646
33.86393
32.63459
32.81705
33.92927
34.31087
33.38121
32.39367
33.5323
34.33536
33.97423
33.00916
33.08107
33.9977
34.28978
33.64345
32.50466
32.54546
33.63259
34.24785
33.95316
33.07702
33.03987
33.89601
34.177
33.5818
32.53927
32.49995
33.51962
34.10847
33.80028
32.98085
32.8885
33.65357
34.11733
33.89841
33.28098
32.39421
32.27494
33.16366
33.73922
34.09381
33.93168
33.51472
32.72338
32.51826
33.18214
33.67952
33.99423
34.09045
33.85201
33.4877
32.84162
32.04954
32.51445
33.0331
33.44691
33.73305
33.82176
33.80322
33.78527
33.62913
33.27894
32.76986
32.11921
32.33152
32.83212
33.07784
33.20723
33.23712
33.14991
32.94579
32.55516
32.02243
32.0813
32.29782
32.4251
32.45399
32.36861
32.16449
31.81552
33.7133
34.60227
35.4602
36.3653
35.95644
35.01882
34.18617
33.34351
33.70466
34.55369
35.40302
36.21264
35.86693
34.97333
34.14906
33.3256
33.6574
34.47574
35.30107
36.01606
35.72133
34.89278
34.01642
33.30404
33.56566
34.38577
35.18269
35.8191
35.5615
34.79422
33.9343
33.4589
34.28225
35.06279
35.69696
35.44089
34.68547
33.82873
33.35505
34.17382
34.94062
35.55624
35.30362
34.57172
33.72294
33.25117
34.06229
34.8157
35.41491
35.17232
34.45479
33.61562
33.14518
33.94711
34.68519
35.2456
35.42075
35.02452
34.33356
33.50543
33.03721
33.82609
34.54401
35.10175
35.32404
34.84626
34.20342
33.3924
32.9293
33.68606
34.37976
34.99315
35.22553
34.69106
34.04559
33.27899
32.81524
33.47737
34.24235
34.88981
35.10973
34.57053
33.88919
33.15786
33.3504
34.11809
34.77843
35.0186
34.4509
33.75933
33.00789
33.21076
33.98886
34.65337
34.8936
34.32224
33.62512
32.86511
33.07702
33.84135
34.46902
34.78807
34.16828
33.47742
32.73285
32.93484
33.67046
34.33616
34.88172
34.68177
34.01752
33.2542
32.5894
32.7947
33.49519
34.16921
34.74231
34.51827
33.84455
33.12138
32.42768
33.11749
33.84814
34.51717
34.23312
33.51017
32.78086
32.76318
33.46745
34.22061
34.60887
33.78409
33.08413
32.39068
32.35599
33.03374
33.93521
34.36131
33.39342
32.72267
32.64103
33.52777
34.43306
34.04659
32.96799
32.29912
33.13685
34.12909
33.71627
32.52426
32.65951
33.75707
34.14861
33.19562
33.21783
34.1484
33.7583
32.68743
32.78536
33.72584
34.08219
33.32375
32.18237
32.2072
33.28035
34.00296
33.67434
32.80975
32.72601
33.58338
34.13042
33.87041
33.20969
32.17439
32.03338
32.96915
33.75083
34.04811
33.47009
32.61583
32.33134
33.19791
33.76169
34.0143
33.52708
32.81218
32.54876
33.19619
33.68225
34.04109
33.84766
33.48681
32.86621
32.09628
32.52111
33.03938
33.54871
33.75745
33.83478
33.87809
33.81594
33.65826
33.29241
32.7791
32.12301
32.3198
32.81256
33.06401
33.18968
33.20738
33.13606
32.93112
32.54183
32.01215
31.90874
32.24265
32.36765
32.3832
32.32633
32.11002
33.64189
34.60233
35.50384
36.384
35.98659
35.05772
34.12277
33.62881
34.55373
35.44243
36.22985
35.89188
35.00801
34.02845
33.58475
34.47579
35.33283
36.03613
35.75149
34.91625
33.97772
33.51481
34.38622
35.20735
35.84319
35.59145
34.81094
33.90229
33.43144
34.28301
35.08113
35.70395
35.45772
34.69638
33.8132
33.33815
34.1745
34.95564
35.56187
35.31724
34.5799
33.71377
33.23763
34.06271
34.83223
35.42706
35.18837
34.46314
33.60817
33.13193
33.9475
34.70814
35.29646
35.0559
34.34465
33.49761
33.0233
33.82649
34.58126
35.15856
35.31747
34.92332
34.22119
33.38375
32.91279
33.6864
34.42887
35.00933
35.2129
34.74857
34.07192
33.2719
33.4775
34.26564
34.89968
35.12266
34.59476
33.90164
33.12688
33.35053
34.13633
34.80187
35.03279
34.47295
33.7711
32.99015
33.21087
34.00671
34.67701
34.91444
34.34684
33.63528
32.85486
33.07711
33.86373
34.55283
34.95453
34.76459
34.21141
33.48666
32.7267
32.93495
33.6874
34.3603
34.88275
34.65966
34.0422
33.26133
32.58691
32.79472
33.52383
34.18254
34.74943
34.48416
33.86974
33.12939
32.42787
33.12739
33.85508
34.42006
34.66802
34.15459
33.52291
32.80075
32.7769
33.47835
34.09637
34.63319
34.40142
33.80508
33.09404
32.40079
32.36483
33.05747
33.75924
34.38984
34.12301
33.43747
32.74315
32.68331
33.35082
34.09708
34.4928
33.66679
32.9947
32.31142
32.24742
32.9211
33.80682
34.20502
33.27787
32.59017
32.4736
33.32403
34.23651
33.84123
32.82621
32.8969
33.83521
34.23674
33.34877
32.26178
32.33972
33.42442
34.20683
33.87256
32.91956
32.95862
33.80862
34.15174
33.49087
32.33684
32.32802
33.33649
34.08247
33.75678
32.91206
32.80419
33.61226
33.96183
33.25824
32.26389
32.09466
33.04532
33.75066
34.03753
33.48333
32.67732
32.45535
33.20893
33.74263
33.98448
33.52522
32.84085
31.94822
32.54926
33.1906
33.67152
34.03166
33.84254
33.48803
32.8614
32.10601
32.50549
33.01467
33.40011
33.70588
33.77928
33.77225
33.76201
33.59463
33.25298
32.75831
32.11082
32.26346
32.62881
32.96856
33.11965
33.1226
33.07726
32.86548
32.50298
31.9671
31.84571
32.1654
32.32258
32.33658
32.26086
32.07653
33.58824
34.48371
35.46024
36.38404
35.97246
34.97498
33.97414
33.56848
34.4617
35.40305
36.22992
35.87805
34.93814
33.95785
33.52744
34.41146
35.30104
36.03629
35.73226
34.86763
33.91604
33.46716
34.3381
35.18263
35.84344
35.57685
34.7758
33.85267
33.39133
34.24835
35.06275
35.70422
35.45085
34.6722
33.77234
33.30318
34.14699
34.94064
35.56214
35.3123
34.56059
33.67953
33.2062
34.03682
34.81574
35.42729
35.18266
34.44235
33.57798
33.10097
33.91749
34.68518
35.29661
35.04381
34.31552
33.47014
32.99051
33.77957
34.54402
35.15865
34.91565
34.17296
33.36055
33.56669
34.37979
35.00939
35.20606
34.71576
34.00646
33.21852
33.43953
34.24239
34.89976
35.11338
34.58214
33.86955
33.07844
33.30567
34.1181
34.80196
35.02564
34.46212
33.7408
32.94398
33.17836
33.98886
34.67714
34.91004
34.33588
33.61013
32.8205
33.05605
33.84128
34.55313
34.94686
34.76563
34.19508
33.46521
32.69751
32.89657
33.67043
34.36098
34.86996
34.66366
34.03131
33.24497
32.76253
33.49533
34.18307
34.71736
34.48314
33.85748
33.11138
33.11761
33.85524
34.43946
34.66144
34.15946
33.5162
32.77093
32.76332
33.47853
34.11262
34.59461
34.39054
33.80939
33.09029
32.38385
32.35612
33.05794
33.79631
34.33519
34.57723
34.12838
33.45061
32.73645
32.68351
33.3825
33.97597
34.51572
34.28231
33.69726
33.00377
32.30549
32.24752
32.93814
33.61855
34.26259
33.98107
33.29552
32.61444
32.5113
33.21128
33.92038
34.33656
33.52394
32.85351
32.69853
33.49409
34.30033
33.94545
32.99121
32.31514
33.05592
33.97896
33.59212
32.42771
32.46594
33.55733
33.96478
33.05822
33.02021
33.90627
33.51954
32.43076
32.40421
33.44393
34.09426
33.77306
32.97085
32.8533
33.66036
33.98966
33.27147
32.34497
32.1362
33.14764
33.7547
34.00715
33.50303
32.67844
32.37841
33.20001
33.74721
34.00005
33.51669
32.82845
32.5242
33.17445
33.65131
33.9352
34.0267
33.80335
33.47189
32.84283
32.06617
32.45318
32.97348
33.3482
33.64595
33.77379
33.74832
33.73038
33.55262
33.19194
32.69156
32.06797
32.19295
32.55791
32.89721
33.07734
33.09702
32.98275
32.77607
32.39847
31.90466
32.04858
32.22181
32.24042
32.15543
31.89231
33.54623
34.42825
35.39942
36.36531
35.93884
34.90204
33.92922
33.52265
34.40262
35.34836
36.21266
35.85048
34.86842
33.9089
33.47495
34.34884
35.25438
36.01609
35.70792
34.8009
33.86145
33.40462
34.2772
35.14325
35.81914
35.55143
34.71446
33.79581
33.30943
34.19468
35.02999
35.69699
35.43254
34.61868
33.71798
33.21245
34.09697
34.91079
35.55626
35.29187
34.51268
33.62197
33.12137
33.98163
34.78496
35.41493
35.14602
34.39558
33.51487
33.82708
34.64576
35.2456
34.97376
34.25985
33.3981
33.64773
34.4984
35.10175
35.30834
34.80871
34.11008
33.2591
33.50613
34.36019
34.99315
35.21581
34.67401
33.96767
33.1283
33.37176
34.20881
34.88982
35.12018
34.55297
33.8214
32.99719
33.24598
34.0735
34.77843
35.01712
34.43309
33.68688
32.86318
33.12145
33.94117
34.65338
34.87629
34.30742
33.54861
32.74493
32.98143
33.78849
34.46899
34.9546
34.74813
34.16338
33.3406
32.81246
33.64756
34.33608
34.88284
34.65721
34.02962
33.19179
32.65428
33.46269
34.16913
34.7495
34.49532
33.83235
33.05546
33.0893
33.84813
34.4201
34.64384
34.14613
33.48194
32.70788
32.70689
33.46743
34.09645
34.59471
34.36885
33.8111
33.06757
33.03379
33.75925
34.33529
34.58756
34.04724
33.42394
32.68111
32.64115
33.35088
33.97612
34.46526
34.25006
33.68999
32.98573
32.92123
33.61849
34.17122
34.40764
33.89893
33.28873
32.57331
32.47374
33.2115
33.79554
34.34737
34.09093
33.53029
32.84898
32.69855
33.33379
33.98863
34.34759
33.62464
33.0006
32.30356
32.85413
33.66632
34.0544
33.19913
32.49072
32.26859
33.17903
34.0187
33.63635
32.65853
32.59962
33.64195
34.01195
33.11881
33.07426
33.93198
33.59616
32.51284
32.44544
33.46451
34.06534
33.76479
33.03089
32.82544
33.62896
33.99423
33.26
32.32501
32.05088
33.04655
33.73147
34.00535
33.47767
32.69156
32.30691
33.16299
33.72294
34.04888
33.9375
33.49741
32.76607
32.42812
33.12585
33.58879
33.8756
34.05008
33.97368
33.73349
33.34972
32.77512
31.94873
32.28651
32.80255
33.2537
33.47786
33.69801
33.70229
33.64264
33.37608
33.07303
32.58749
31.91428
31.96372
32.4084
32.6632
32.89457
32.89897
32.84664
32.56054
32.23455
31.85252
32.01442
32.03444
31.98025
33.66574
34.6502
35.61162
36.33428
35.97837
35.10096
34.1425
33.63742
34.615
35.54916
36.19006
35.88307
35.0571
34.1164
33.58637
34.53491
35.43442
35.99927
35.73633
34.96642
34.05809
33.52233
34.39906
35.30062
35.81096
35.5812
34.84335
33.97966
33.44532
34.24915
35.17628
35.68953
35.46956
34.71596
33.83649
33.34682
34.11448
35.05608
35.55279
35.32862
34.59306
33.7156
33.26617
34.00157
34.92818
35.43286
35.20548
34.4675
33.58971
33.89998
34.78937
35.30251
35.07089
34.35334
33.48328
33.78338
34.61712
35.18821
34.92517
34.22359
33.36247
33.65576
34.44852
35.05786
35.2202
34.80854
34.08043
33.23758
33.531
34.30491
34.91739
35.0987
34.68523
33.93357
33.11086
33.41133
34.16025
34.82221
35.02058
34.55544
33.74454
33.00382
33.22713
34.03007
34.70595
34.92547
34.441
33.6238
32.90494
33.08835
33.91117
34.57142
34.81789
34.32469
33.48939
32.93004
33.76018
34.46909
34.88172
34.71354
34.12343
33.34344
32.78336
33.53937
34.28224
34.7423
34.54059
33.91673
33.19564
33.24126
33.95168
34.51717
34.71297
34.27161
33.61215
32.83887
32.86892
33.61949
34.22057
34.63321
34.45349
33.98907
33.26577
32.47299
33.2461
33.9352
34.38985
34.58178
34.17057
33.58135
32.85118
32.81746
33.52763
34.09702
34.51577
34.32478
33.87449
33.19925
32.4505
32.39438
33.13715
33.80682
34.26271
34.44678
34.03492
33.4638
32.75351
32.66017
33.32423
33.92042
34.34735
34.15987
33.71151
33.04746
32.8972
33.49403
33.98856
34.24179
33.78155
33.19721
32.4963
32.33979
33.05582
33.66617
34.17688
33.88719
33.29683
32.69106
32.46587
33.17907
33.82827
34.21346
33.54578
32.86258
32.60067
33.42611
34.16718
33.79217
32.98577
32.91159
33.74248
34.12031
33.36598
32.2803
33.30027
34.02508
33.66564
32.74461
32.61636
33.52946
33.91665
33.23964
32.97822
33.72044
33.99977
33.41231
32.47283
32.1853
33.20595
33.7622
34.00829
33.46859
32.84494
32.33136
33.19725
33.74569
33.94994
33.4801
32.86429
32.42267
33.04743
33.554
33.84187
34.03105
33.93188
33.75129
33.36419
32.8463
31.98045
32.22628
32.87465
33.31022
33.54872
33.62099
33.62538
33.62686
33.44191
33.03196
32.61137
31.97825
32.44818
32.71188
32.83089
32.88966
32.80711
32.61435
32.29059
31.95198
32.18963
32.11902
32.12954
33.86557
34.94854
36.16409
35.61912
34.29549
33.48139
33.84049
34.91119
36.04121
35.55333
34.2734
33.45485
33.79147
34.83664
35.86252
35.43481
34.21943
33.40739
33.7236
34.74437
35.66434
35.29504
34.14671
33.34258
33.64371
34.64944
35.52002
35.72272
35.18635
34.06448
33.26681
33.5559
34.54993
35.35461
35.57701
35.05681
33.97657
33.1893
33.44718
34.44645
35.21854
35.4461
34.92763
33.89363
33.12214
33.35462
34.33342
35.08732
35.31979
34.79415
33.80599
33.23969
34.20835
34.96068
35.20027
34.6592
33.69662
33.11968
34.04488
34.80072
35.08767
34.46561
33.5749
33.0076
33.80085
34.67321
34.97474
34.26938
33.44134
32.88804
33.66265
34.56964
34.8719
34.13751
33.26153
32.77483
33.52264
34.44549
34.93659
34.72666
34.01401
33.12235
33.40451
34.32125
34.83326
34.6054
33.88238
32.97858
33.28266
34.13479
34.74419
34.46825
33.70707
32.84146
33.08206
33.91148
34.57842
34.78798
34.29136
33.48391
32.7152
32.77592
33.52748
34.27716
34.5561
34.01208
33.18122
32.39882
33.20176
34.03017
34.52206
34.30728
33.62184
32.78725
32.81331
33.63345
34.26654
34.48509
33.97799
33.24395
32.43373
32.42854
33.21845
33.92934
34.43334
34.22228
33.59297
32.80403
32.75623
33.53248
34.1294
34.35224
33.86007
33.16421
32.38272
32.31241
33.08133
33.75778
34.23807
33.98975
33.43889
32.68047
32.54562
33.2184
33.85134
34.29826
34.1067
33.63336
32.93431
32.19391
32.78504
33.4247
33.97733
34.19167
33.72346
33.08951
32.38517
32.20704
32.95844
33.557
34.01846
34.24319
33.76897
33.22371
32.56801
32.3279
33.02007
33.64183
34.16711
33.89333
33.33792
32.66555
32.40415
33.07421
33.74243
34.13499
33.47329
32.79764
32.44541
33.30025
34.03379
33.67312
32.82609
32.09644
32.61635
33.59174
34.00181
33.22414
33.13225
33.84898
33.47071
32.43556
32.25705
33.25123
33.99145
33.63634
32.85063
32.65914
33.43848
33.99641
33.75727
33.13343
32.0393
32.75531
33.44028
33.96997
33.75875
33.1346
32.26955
31.83463
32.78059
33.40125
33.80621
33.96366
33.60994
33.13146
32.30316
31.85972
32.61913
33.13426
33.51678
33.75739
33.81339
33.8253
33.80662
33.62294
33.36399
32.86675
32.30739
32.37629
32.73424
33.06101
33.17923
33.20235
33.15028
32.93984
32.58534
32.0432
31.96075
32.33313
32.58059
32.78065
32.81582
32.72924
32.48496
32.16953
31.93015
32.18873
32.36109
32.33817
32.2692
32.07806
31.78187
32.00517
31.93439
31.93373
34.24715
35.56408
36.34788
35.98296
34.91726
33.7368
34.2219
35.50083
36.19608
35.88155
34.88009
33.70434
34.16355
35.38166
35.99585
35.73162
34.80532
33.6392
34.08168
35.2429
35.79325
35.55368
34.70394
33.55798
33.98421
35.10496
35.66085
35.41728
34.58619
33.46745
33.87737
34.95903
35.50838
35.22453
34.46058
33.37096
33.75741
34.70322
35.38551
35.08305
34.2987
33.26792
33.61991
34.53031
35.26083
34.95937
34.1212
33.15534
33.47658
34.38095
35.16159
34.83739
33.94028
33.03521
33.33878
34.23851
35.04403
34.71298
33.70814
32.92718
33.15667
34.12668
34.92024
34.6069
33.58769
32.81436
33.02501
34.01485
34.77649
34.98499
34.48296
33.47706
32.90176
33.89052
34.60812
34.86695
34.3488
33.36504
32.77838
33.70451
34.49498
34.77687
34.11107
33.23237
32.64528
33.43766
34.38942
34.68621
33.94634
33.07116
32.47584
33.29587
34.21716
34.75216
34.53175
33.78847
32.85035
33.01583
33.84568
34.51639
34.22024
33.386
32.58939
32.63314
33.52088
34.21033
34.49116
33.94371
33.07038
32.23413
33.09066
33.91665
34.43624
34.22079
33.51458
32.63302
32.635
33.50902
34.17672
34.39226
33.85794
33.08952
32.24302
32.20689
33.04719
33.81075
34.33543
34.10264
33.45798
32.5988
32.53613
33.38818
33.99774
34.26536
33.73802
32.97895
32.14473
32.05888
32.87162
33.63256
34.14833
33.85127
33.26707
32.44103