/*--------------------------------*- C++ -*----------------------------------*\
| =========                 |                                                 |
| \\      /  F ield         | OpenFOAM: The Open Source CFD Toolbox           |
|  \\    /   O peration     | Version:  5.x                                   |
|   \\  /    A nd           | Web:      www.OpenFOAM.org                      |
|    \\/     M anipulation  |                                                 |
\*---------------------------------------------------------------------------*/
FoamFile
{
    version     2.0;
    format      ascii;
    class       volScalarField;
    location    "100/muscle";
    object      T;
}
// * * * * * * * * * * * * * * * * * * * * * * * * * * * * * * * * * * * * * //

dimensions      [0 0 0 1 0 0 0];

internalField   nonuniform List<scalar> 
209768
(
37.00993
37.00914
37.0091
37.00921
37.03806
37.03943
37.0396
37.0391
37.07382
37.07394
37.07449
37.10719
37.1071
37.10869
37.13538
37.13515
37.00846
37.00809
37.00788
37.00781
37.00777
37.00789
37.00802
37.00803
37.00978
37.04028
37.04019
37.03934
37.03908
37.03883
37.03964
37.03976
37.03912
37.07495
37.07368
37.07159
37.07056
37.07016
37.07135
37.07228
37.07345
37.11002
37.10611
37.10333
37.10221
37.1016
37.10249
37.10441
37.10699
37.13878
37.13682
37.13488
37.13362
37.13338
37.13397
37.13621
37.1379
37.16975
37.16947
37.16622
37.16459
37.16465
37.16513
37.16839
37.17118
37.20187
37.19903
37.19485
37.19449
37.19593
37.19866
37.20587
37.23446
37.22654
37.22454
37.22418
37.22772
37.22906
37.24344
37.26564
37.25931
37.25654
37.25675
37.25611
37.2599
37.29713
37.29428
37.29307
37.29638
37.29653
37.00844
37.00827
37.00778
37.00758
37.00747
37.00743
37.00754
37.00766
37.00791
37.00807
37.01035
37.03943
37.04011
37.039
37.03807
37.03754
37.03734
37.03787
37.03845
37.03927
37.03971
37.03786
37.07295
37.07135
37.06995
37.06853
37.06771
37.06744
37.06814
37.06914
37.07047
37.07167
37.07413
37.10597
37.10287
37.10053
37.09883
37.09801
37.09775
37.09832
37.09961
37.10149
37.10396
37.10965
37.13577
37.13452
37.13152
37.12929
37.12828
37.12814
37.12858
37.13041
37.133
37.13773
37.13641
37.16846
37.16646
37.16274
37.1595
37.15797
37.15781
37.15849
37.16096
37.16539
37.16859
37.16981
37.20304
37.19921
37.1936
37.18954
37.18718
37.18678
37.18815
37.19112
37.19652
37.20161
37.22964
37.23658
37.22515
37.21922
37.21676
37.21622
37.21796
37.22126
37.2289
37.23594
37.26193
37.26192
37.25462
37.24905
37.2468
37.24625
37.24767
37.25125
37.25804
37.26316
37.29633
37.29549
37.2884
37.28511
37.28433
37.28708
37.29021
37.29482
37.29936
37.34904
37.34849
37.35202
37.35181
37.35233
37.3483
37.34782
37.39797
37.40073
37.39917
37.40083
37.39748
37.00918
37.00829
37.00773
37.00765
37.00742
37.00726
37.00717
37.00714
37.00721
37.00733
37.00752
37.00767
37.00789
37.00765
37.03699
37.03968
37.03847
37.03796
37.03715
37.03644
37.03601
37.0359
37.03621
37.03676
37.03753
37.03817
37.03893
37.03841
37.07175
37.06933
37.06798
37.06673
37.06563
37.06499
37.06482
37.06526
37.06613
37.06732
37.06855
37.07041
37.07292
37.10451
37.10035
37.09822
37.09629
37.09481
37.09403
37.09386
37.09433
37.09547
37.09719
37.09926
37.102
37.10768
37.13515
37.13142
37.12879
37.12607
37.12403
37.12302
37.12285
37.12339
37.12495
37.12739
37.13036
37.13293
37.13638
37.16611
37.1624
37.15931
37.15586
37.15313
37.15174
37.1515
37.15227
37.15433
37.15764
37.16096
37.1637
37.16826
37.19627
37.19315
37.18979
37.18542
37.18206
37.18024
37.17989
37.18097
37.1835
37.18759
37.19156
37.19661
37.19982
37.22575
37.22228
37.22021
37.21483
37.21085
37.20883
37.2084
37.20967
37.21252
37.21738
37.22188
37.22399
37.25759
37.2519
37.24878
37.24369
37.23952
37.23743
37.23698
37.23829
37.24132
37.24619
37.25121
37.25349
37.29529
37.28891
37.28461
37.28076
37.27666
37.27443
37.27394
37.27542
37.27847
37.28234
37.28643
37.29173
37.34409
37.34167
37.33825
37.33555
37.33551
37.33522
37.33572
37.33661
37.33863
37.34246
37.39693
37.39327
37.38897
37.38877
37.38751
37.38937
37.38948
37.39282
37.39916
37.44071
37.44007
37.43717
37.43712
37.43759
37.44071
37.00801
37.0079
37.00743
37.00723
37.00707
37.00695
37.00687
37.00686
37.0069
37.007
37.00714
37.00731
37.00762
37.00799
37.00871
37.04142
37.03886
37.03705
37.03616
37.03546
37.03489
37.03456
37.03448
37.0347
37.03515
37.03579
37.03654
37.03778
37.03991
37.03839
37.07148
37.06895
37.06651
37.06506
37.06387
37.06294
37.0624
37.06228
37.06262
37.06336
37.06444
37.06571
37.06756
37.07058
37.07295
37.10351
37.0989
37.09603
37.09407
37.09235
37.09103
37.09031
37.09016
37.09059
37.09162
37.09317
37.09501
37.09729
37.10088
37.10725
37.13411
37.12892
37.12573
37.12325
37.12092
37.11915
37.1182
37.11802
37.11857
37.11994
37.12204
37.1245
37.12714
37.13114
37.13499
37.16446
37.15895
37.15548
37.15242
37.14947
37.1472
37.14598
37.14574
37.14646
37.14821
37.15091
37.15395
37.15712
37.16114
37.16711
37.19419
37.18944
37.18497
37.18139
37.17785
37.17513
37.17363
37.17334
37.17423
37.17634
37.17957
37.18316
37.18718
37.19127
37.19842
37.22435
37.21905
37.21359
37.20994
37.20599
37.20291
37.20123
37.20089
37.20191
37.20427
37.20791
37.21183
37.21588
37.22334
37.25541
37.24726
37.24192
37.23781
37.23373
37.23048
37.2287
37.22834
37.22942
37.23193
37.2357
37.2399
37.24416
37.25096
37.29232
37.28724
37.27819
37.27313
37.26926
37.26607
37.26428
37.26391
37.26501
37.26753
37.27105
37.27545
37.28189
37.28927
37.34526
37.33559
37.33027
37.32654
37.32389
37.32279
37.32249
37.32325
37.32505
37.32808
37.33271
37.34077
37.35575
37.39355
37.38638
37.38119
37.37808
37.37673
37.37623
37.37742
37.37923
37.38295
37.39111
37.3999
37.45137
37.43889
37.4329
37.43032
37.42789
37.42768
37.42856
37.43163
37.43706
37.44351
37.48446
37.48285
37.48146
37.48136
37.4817
37.48351
37.48774
37.00817
37.00775
37.00745
37.0071
37.0069
37.00676
37.00666
37.0066
37.00659
37.00662
37.0067
37.00682
37.00699
37.00726
37.00763
37.00779
37.01029
37.0391
37.03854
37.03701
37.03554
37.03462
37.03396
37.03348
37.0332
37.03315
37.03332
37.0337
37.03427
37.03503
37.0362
37.03787
37.03869
37.03803
37.07127
37.0684
37.06598
37.06386
37.06241
37.06129
37.06046
37.05999
37.05989
37.06018
37.06084
37.06182
37.06307
37.06482
37.06724
37.06954
37.07318
37.1029
37.09802
37.09471
37.09218
37.09028
37.08871
37.08754
37.08688
37.08674
37.08714
37.08806
37.08946
37.09118
37.09334
37.09628
37.10004
37.10728
37.13265
37.12774
37.12364
37.12065
37.11826
37.1162
37.11465
37.11379
37.11362
37.11413
37.11534
37.11718
37.11941
37.12203
37.12552
37.13018
37.13304
37.16385
37.15772
37.15285
37.14922
37.14625
37.14367
37.14173
37.14066
37.14044
37.14109
37.1426
37.1449
37.14769
37.15093
37.15505
37.16062
37.16578
37.19669
37.18862
37.18227
37.17764
37.17407
37.17101
37.16873
37.16745
37.16719
37.16796
37.16975
37.17247
37.17578
37.17979
37.18508
37.19357
37.22397
37.21794
37.21094
37.20553
37.20155
37.19814
37.19558
37.19414
37.19385
37.19472
37.19672
37.19976
37.20345
37.20798
37.21432
37.22129
37.25499
37.24608
37.23879
37.23296
37.22859
37.22495
37.22221
37.22067
37.22036
37.22129
37.22344
37.22667
37.23067
37.23562
37.24228
37.25047
37.28643
37.27601
37.26849
37.26331
37.25947
37.25666
37.25508
37.25476
37.25571
37.25792
37.26125
37.2657
37.27185
37.28081
37.29087
37.35251
37.337
37.32671
37.3204
37.3162
37.31343
37.31202
37.31172
37.31259
37.31464
37.31807
37.32324
37.33127
37.34475
37.36011
37.39361
37.38322
37.37594
37.37076
37.36762
37.36606
37.36571
37.3667
37.36894
37.37299
37.37939
37.3881
37.40061
37.45367
37.44073
37.43037
37.42357
37.42007
37.41829
37.41803
37.41892
37.42163
37.42665
37.43428
37.44713
37.49079
37.48595
37.47697
37.47282
37.47118
37.47096
37.47161
37.47496
37.48186
37.48845
37.5328
37.52751
37.52643
37.52584
37.5255
37.53054
37.5275
37.00903
37.00756
37.00728
37.00703
37.00679
37.00661
37.00649
37.0064
37.00635
37.00634
37.00637
37.00644
37.00655
37.00669
37.0069
37.00717
37.00739
37.00783
37.03869
37.03766
37.0364
37.03519
37.03406
37.03324
37.03263
37.0322
37.03196
37.03191
37.03206
37.0324
37.03292
37.03362
37.03459
37.03582
37.03695
37.03854
37.0722
37.06791
37.0653
37.06318
37.06137
37.06
37.05896
37.05821
37.05778
37.0577
37.05795
37.05854
37.05944
37.06064
37.06221
37.06422
37.06646
37.06976
37.10486
37.0984
37.09417
37.09111
37.08871
37.08687
37.0854
37.08433
37.08373
37.08361
37.08397
37.08481
37.08609
37.08773
37.08983
37.09255
37.09606
37.10137
37.13381
37.12891
37.12325
37.11919
37.11617
37.11382
37.11192
37.11053
37.10975
37.10959
37.11006
37.11115
37.11281
37.11493
37.11758
37.12106
37.12582
37.13245
37.16673
37.15962
37.15257
37.14748
37.14371
37.14079
37.13843
37.13672
37.13576
37.13557
37.13614
37.13749
37.13954
37.14217
37.14546
37.14981
37.15579
37.16264
37.19949
37.18872
37.18175
37.17573
37.17115
37.16765
37.16487
37.16286
37.16173
37.1615
37.16218
37.16376
37.16617
37.16929
37.17327
37.17854
37.18524
37.1932
37.22426
37.21751
37.21013
37.20351
37.19826
37.19427
37.19114
37.18888
37.18761
37.18735
37.18811
37.18989
37.1926
37.19614
37.2007
37.20667
37.21376
37.22184
37.24713
37.23847
37.23095
37.22505
37.22059
37.21716
37.21471
37.21334
37.21306
37.21389
37.21581
37.21876
37.22267
37.22779
37.23451
37.243
37.25253
37.28488
37.27598
37.2669
37.2598
37.25462
37.25084
37.24822
37.24676
37.24647
37.24734
37.24939
37.25258
37.25701
37.26307
37.27125
37.28078
37.29122
37.34441
37.33869
37.3267
37.31747
37.31114
37.3068
37.30397
37.30247
37.30217
37.30307
37.30521
37.30875
37.31401
37.32168
37.3325
37.3436
37.39371
37.38262
37.37326
37.36604
37.36097
37.35778
37.35616
37.35584
37.3568
37.35916
37.36324
37.36936
37.37776
37.38774
37.40014
37.44267
37.43942
37.42835
37.4197
37.41377
37.41018
37.40844
37.40814
37.40909
37.41174
37.41647
37.42356
37.43385
37.43983
37.48876
37.48034
37.47254
37.4662
37.46218
37.46048
37.46022
37.46103
37.464
37.46928
37.4764
37.48341
37.5246
37.52022
37.51713
37.51314
37.51248
37.5124
37.51235
37.51545
37.51913
37.5221
37.56068
37.55693
37.56039
37.56053
37.56014
37.55692
37.56055
37.00941
37.0077
37.00723
37.00694
37.00671
37.00651
37.00636
37.00625
37.00617
37.00612
37.00611
37.00614
37.0062
37.0063
37.00643
37.00661
37.00682
37.00707
37.00743
37.00798
37.03908
37.03815
37.03622
37.03484
37.03371
37.03274
37.032
37.03144
37.03105
37.03083
37.03079
37.03092
37.03122
37.0317
37.03235
37.0332
37.03426
37.03547
37.03712
37.03912
37.0728
37.0689
37.06545
37.06283
37.06078
37.05911
37.05783
37.05685
37.05615
37.05577
37.05569
37.05592
37.05646
37.0573
37.05843
37.0599
37.06176
37.06404
37.06706
37.07086
37.10598
37.09979
37.09499
37.09096
37.08793
37.08559
37.08378
37.0824
37.08141
37.08086
37.08075
37.08108
37.08185
37.08304
37.08463
37.08668
37.08934
37.09282
37.09743
37.10244
37.13068
37.12445
37.11918
37.11519
37.11217
37.10984
37.10804
37.10676
37.10604
37.1059
37.10633
37.10733
37.10887
37.11093
37.11358
37.11705
37.12164
37.12752
37.13443
37.161
37.15353
37.1474
37.14253
37.13879
37.13592
37.13371
37.13214
37.13126
37.13108
37.13161
37.13284
37.13473
37.13726
37.14053
37.14481
37.15032
37.15696
37.16577
37.19391
37.1824
37.17546
37.16979
37.16535
37.16194
37.15933
37.15749
37.15646
37.15626
37.15688
37.15831
37.16054
37.16353
37.16743
37.17247
37.17875
37.18679
37.19701
37.22137
37.21111
37.20325
37.19683
37.19172
37.18781
37.18484
37.18276
37.1816
37.18137
37.18207
37.18369
37.18621
37.18963
37.19411
37.19987
37.20696
37.21609
37.22677
37.25111
37.23986
37.231
37.22368
37.21788
37.21348
37.21018
37.20789
37.20662
37.20637
37.20713
37.20891
37.2117
37.21553
37.22059
37.22715
37.23525
37.24527
37.25917
37.29049
37.2768
37.26715
37.25863
37.25185
37.24678
37.24308
37.24057
37.23918
37.23891
37.23973
37.24168
37.24477
37.24913
37.25501
37.26269
37.27189
37.28436
37.3445
37.33796
37.32702
37.31684
37.30857
37.30245
37.29813
37.29529
37.29378
37.29348
37.29438
37.29654
37.30009
37.30526
37.31243
37.32177
37.33215
37.34029
37.39358
37.38266
37.37235
37.36361
37.35667
37.3517
37.34851
37.34686
37.34654
37.34751
37.3499
37.35395
37.35988
37.36781
37.37718
37.39069
37.40019
37.44909
37.43574
37.4267
37.4174
37.40958
37.404
37.40046
37.39868
37.39836
37.39936
37.40199
37.40654
37.4132
37.42204
37.43083
37.43945
37.48695
37.47878
37.46867
37.46104
37.45529
37.45149
37.4497
37.4494
37.45035
37.45316
37.45796
37.46466
37.4733
37.4815
37.52521
37.51696
37.50961
37.50466
37.50093
37.49957
37.49937
37.49998
37.50263
37.50699
37.51284
37.51996
37.56126
37.55673
37.55043
37.54707
37.54596
37.54579
37.54632
37.54818
37.55318
37.55941
37.59208
37.58869
37.58888
37.58822
37.5886
37.59066
37.01031
37.00786
37.00735
37.00697
37.00668
37.00646
37.00628
37.00613
37.00603
37.00596
37.00591
37.00591
37.00593
37.00599
37.00608
37.0062
37.00636
37.00656
37.00681
37.00715
37.00758
37.0085
37.03857
37.03895
37.03687
37.03503
37.03361
37.03249
37.03159
37.03089
37.03037
37.03
37.0298
37.02976
37.02988
37.03016
37.03061
37.03122
37.03201
37.03302
37.03427
37.03589
37.03792
37.0393
37.07397
37.0723
37.06675
37.06335
37.06074
37.05871
37.0571
37.05587
37.05494
37.05429
37.05392
37.05385
37.05407
37.05458
37.05536
37.05644
37.05786
37.05966
37.06196
37.06493
37.06891
37.07214
37.10904
37.10208
37.09683
37.09187
37.08802
37.08506
37.08276
37.081
37.07967
37.07874
37.07823
37.07812
37.07843
37.07916
37.08029
37.08182
37.08384
37.08644
37.08981
37.0942
37.09983
37.10589
37.13344
37.12664
37.1203
37.11535
37.1115
37.10853
37.10624
37.10452
37.10332
37.10265
37.10251
37.10291
37.10385
37.10531
37.10731
37.10992
37.11331
37.11767
37.12326
37.13051
37.13572
37.16483
37.15592
37.14853
37.14266
37.13799
37.13434
37.13153
37.12942
37.12795
37.12713
37.12696
37.12746
37.1286
37.13039
37.13284
37.13605
37.14018
37.14543
37.15201
37.16018
37.16972
37.19522
37.18583
37.17675
37.16989
37.16443
37.16012
37.1568
37.15431
37.15258
37.15162
37.15143
37.15201
37.15335
37.15546
37.15835
37.16214
37.167
37.17311
37.18096
37.19062
37.20213
37.22719
37.21561
37.20483
37.197
37.19075
37.1858
37.18198
37.17913
37.17717
37.17608
37.17587
37.17652
37.17804
37.18044
37.18376
37.18812
37.1937
37.20067
37.20973
37.22422
37.26659
37.24487
37.23267
37.22398
37.21694
37.21133
37.20703
37.20384
37.20166
37.20046
37.20022
37.20094
37.20262
37.2053
37.20903
37.21396
37.22027
37.22807
37.23811
37.25435
37.30475
37.28174
37.26859
37.25901
37.25098
37.24453
37.23961
37.236
37.23357
37.23223
37.23197
37.23276
37.23464
37.23765
37.24189
37.24756
37.25481
37.26359
37.27455
37.2925
37.33816
37.32769
37.31718
37.30784
37.30019
37.29432
37.29008
37.28727
37.28577
37.28547
37.28636
37.28851
37.29201
37.29704
37.30379
37.31232
37.32232
37.33322
37.34442
37.39791
37.38488
37.3726
37.36268
37.35439
37.34776
37.34292
37.33976
37.33809
37.33777
37.33875
37.34114
37.34512
37.35085
37.35835
37.36737
37.37863
37.39102
37.44102
37.42582
37.41601
37.40718
37.39989
37.39455
37.39107
37.38926
37.38892
37.38997
37.39259
37.39698
37.40329
37.41147
37.42067
37.43195
37.45639
37.48866
37.47884
37.46748
37.45793
37.45046
37.44493
37.44124
37.43938
37.43904
37.4401
37.44285
37.44747
37.45395
37.46247
37.47272
37.48253
37.53598
37.51725
37.50635
37.49909
37.49357
37.48985
37.48809
37.48778
37.48875
37.49148
37.49611
37.50238
37.51111
37.52347
37.5652
37.55445
37.54684
37.54014
37.53629
37.53454
37.53417
37.5352
37.53787
37.54291
37.54978
37.55841
37.59487
37.58681
37.58204
37.58022
37.57925
37.58075
37.58529
37.59079
37.59937
37.63139
37.62771
37.62723
37.62903
37.01047
37.00804
37.00757
37.00712
37.00675
37.00647
37.00624
37.00607
37.00593
37.00583
37.00576
37.00573
37.00572
37.00574
37.00579
37.00588
37.006
37.00615
37.00635
37.0066
37.00693
37.00734
37.00779
37.00858
37.03869
37.03928
37.038
37.03582
37.03397
37.03255
37.03143
37.03056
37.02989
37.02939
37.02905
37.02886
37.02882
37.02893
37.0292
37.02962
37.03021
37.03097
37.03196
37.03321
37.03484
37.03689
37.03874
37.03961
37.07448
37.07122
37.06885
37.06477
37.06143
37.05885
37.05685
37.05529
37.05409
37.0532
37.05258
37.05224
37.05217
37.05238
37.05285
37.05361
37.05465
37.05602
37.05779
37.06006
37.06299
37.06675
37.07014
37.07283
37.10941
37.10307
37.09933
37.09375
37.08901
37.0853
37.08243
37.08019
37.07847
37.07719
37.0763
37.07581
37.07572
37.07601
37.0767
37.07778
37.07927
37.08124
37.08378
37.08704
37.09124
37.09651
37.10168
37.10542
37.13608
37.13594
37.12977
37.12254
37.11654
37.11182
37.10811
37.10521
37.10297
37.10131
37.10016
37.09953
37.0994
37.09978
37.10067
37.10208
37.10401
37.10656
37.10985
37.11404
37.11937
37.12604
37.1333
37.13545
37.1689
37.16609
37.15973
37.15115
37.144
37.13833
37.13383
37.13028
37.12755
37.1255
37.1241
37.12333
37.12317
37.12364
37.12473
37.12644
37.12882
37.13194
37.13595
37.141
37.14738
37.15526
37.16362
37.16817
37.1979
37.19056
37.18011
37.17148
37.16481
37.15953
37.15536
37.15213
37.14972
37.14807
37.14717
37.14698
37.14753
37.14881
37.15083
37.15363
37.15732
37.16202
37.16794
37.17551
37.1852
37.19463
37.20218
37.22841
37.22223
37.20902
37.19881
37.19121
37.18517
37.18038
37.17667
37.17391
37.17203
37.171
37.17079
37.17141
37.17286
37.17518
37.1784
37.18263
37.18802
37.19477
37.2035
37.21552
37.22835
37.22952
37.26393
37.25383
37.23715
37.22585
37.21746
37.2107
37.2053
37.20112
37.19803
37.19593
37.19477
37.19454
37.19523
37.19686
37.19944
37.20306
37.20784
37.2139
37.22141
37.231
37.24474
37.26134
37.30532
37.29092
37.27317
37.26082
37.25155
37.24391
37.23775
37.23299
37.22948
37.22712
37.22582
37.22557
37.22634
37.22816
37.23109
37.2352
37.24065
37.24754
37.25595
37.26642
37.28191
37.30035
37.34223
37.33046
37.31879
37.30843
37.29959
37.29235
37.28672
37.28258
37.27982
37.27833
37.27803
37.27892
37.28103
37.28447
37.28934
37.29577
37.30381
37.31343
37.32452
37.33779
37.38992
37.37527
37.36334
37.35365
37.34568
37.33932
37.33463
37.33151
37.32985
37.32952
37.33051
37.33288
37.33677
37.34229
37.34947
37.35824
37.36904
37.38174
37.39594
37.44793
37.43109
37.41642
37.40617
37.3976
37.39067
37.38553
37.38212
37.38031
37.37996
37.38102
37.38362
37.38788
37.39392
37.4017
37.41101
37.42282
37.43985
37.48041
37.46794
37.45701
37.44779
37.44056
37.43518
37.43157
37.42967
37.4293
37.43041
37.43316
37.43765
37.44394
37.45216
37.46229
37.47369
37.48647
37.52584
37.51962
37.50607
37.49619
37.48887
37.48334
37.47961
37.47767
37.4773
37.47843
37.48125
37.48589
37.49226
37.50077
37.51227
37.5244
37.56255
37.55437
37.54387
37.53617
37.53006
37.5261
37.52402
37.5236
37.52484
37.52783
37.5328
37.53979
37.54866
37.55773
37.58745
37.58221
37.57625
37.57197
37.56934
37.56878
37.57032
37.574
37.57929
37.58682
37.5918
37.61754
37.62046
37.61744
37.61359
37.61289
37.61649
37.61981
37.61734
37.00912
37.00803
37.00763
37.00731
37.0069
37.00655
37.00627
37.00605
37.00588
37.00575
37.00565
37.00559
37.00555
37.00555
37.00557
37.00562
37.0057
37.00581
37.00596
37.00615
37.0064
37.00671
37.00709
37.00749
37.0078
37.00834
37.01042
37.03866
37.03939
37.03812
37.03673
37.03469
37.03295
37.03157
37.03049
37.02964
37.02899
37.0285
37.02817
37.02799
37.02796
37.02807
37.02832
37.02873
37.02929
37.03004
37.03099
37.03222
37.03378
37.03568
37.03754
37.03877
37.03956
37.07431
37.0713
37.06874
37.06637
37.0627
37.05958
37.0571
37.05516
37.05364
37.05248
37.05161
37.05102
37.05069
37.05063
37.05082
37.05128
37.05201
37.05302
37.05435
37.05607
37.05826
37.06105
37.06448
37.06776
37.0699
37.07287
37.10949
37.10293
37.09947
37.09606
37.09076
37.08632
37.08279
37.08001
37.07783
37.07616
37.07491
37.07407
37.0736
37.0735
37.07378
37.07444
37.07549
37.07694
37.07885
37.08131
37.08445
37.08842
37.09332
37.09814
37.10097
37.10566
37.13647
37.13368
37.13037
37.12568
37.11876
37.11307
37.10855
37.10497
37.10216
37.09998
37.09837
37.09726
37.09666
37.09654
37.0969
37.09775
37.09911
37.10099
37.10348
37.10666
37.11068
37.11576
37.12206
37.12859
37.13195
37.13566
37.16938
37.16522
37.16104
37.15509
37.14669
37.13981
37.13435
37.13
37.12655
37.12389
37.12192
37.12057
37.11982
37.11968
37.12012
37.12116
37.12282
37.12513
37.12817
37.13205
37.13692
37.14305
37.15069
37.15867
37.16349
37.1668
37.19724
37.19122
37.18474
37.1747
37.16654
37.16013
37.15503
37.15098
37.14784
37.14551
37.14393
37.14305
37.14288
37.1434
37.14463
37.14658
37.14931
37.15288
37.15744
37.16315
37.17037
37.17952
37.18867
37.19401
37.20151
37.22633
37.22173
37.21459
37.20257
37.19314
37.18585
37.18003
37.17539
37.17178
37.16911
37.16729
37.1663
37.1661
37.16669
37.1681
37.17034
37.17346
37.17757
37.18278
37.18928
37.19753
37.2083
37.21921
37.22393
37.22807
37.25771
37.25317
37.24394
37.22996
37.21951
37.21144
37.20494
37.19972
37.19567
37.19267
37.19063
37.18952
37.1893
37.18996
37.19153
37.19404
37.19756
37.20218
37.20802
37.21525
37.22436
37.23649
37.24964
37.25707
37.25897
37.2967
37.29248
37.28042
37.26512
37.25369
37.24472
37.23739
37.23147
37.22686
37.22345
37.22114
37.21989
37.21964
37.22039
37.22216
37.22501
37.22901
37.23426
37.24087
37.24897
37.259
37.27226
37.28759
37.29511
37.34548
37.33547
37.32269
37.31072
37.30051
37.29198
37.28504
37.2796
37.27557
37.27287
37.2714
37.27111
37.27198
37.27406
37.27742
37.28214
37.28832
37.29605
37.3054
37.31649
37.32927
37.34134
37.34844
37.39231
37.38016
37.36638
37.35473
37.34523
37.3375
37.33137
37.32681
37.32375
37.3221
37.32178
37.32276
37.3251
37.3289
37.33423
37.34116
37.34974
37.36028
37.37297
37.38807
37.39941
37.43684
37.42036
37.40727
37.39703
37.38866
37.38198
37.377
37.37366
37.37185
37.3715
37.37257
37.37513
37.37928
37.38511
37.39264
37.40188
37.4134
37.42774
37.44134
37.48471
37.4711
37.45811
37.44728
37.43833
37.43128
37.42602
37.42245
37.42054
37.42016
37.4213
37.42403
37.42843
37.43458
37.44257
37.45246
37.46424
37.47766
37.51831
37.50778
37.49602
37.48656
37.47923
37.47372
37.46999
37.46798
37.46758
37.46877
37.47164
37.47625
37.48265
37.49102
37.50159
37.51581
37.52362
37.55416
37.54381
37.53386
37.52603
37.52017
37.51621
37.51403
37.51359
37.5149
37.51797
37.52284
37.52969
37.53863
37.55038
37.56009
37.58711
37.57831
37.5712
37.56556
37.5614
37.55883
37.55831
37.55985
37.56334
37.56811
37.57479
37.58326
37.59011
37.61797
37.61244
37.60889
37.60481
37.60186
37.60134
37.60313
37.60733
37.61127
37.61503
37.6452
37.63985
37.63874
37.63843
37.63947
37.64298
37.00828
37.00821
37.00776
37.00739
37.00707
37.00668
37.00635
37.00609
37.00588
37.00571
37.00559
37.00549
37.00543
37.00539
37.00539
37.00541
37.00546
37.00553
37.00565
37.00579
37.00598
37.00621
37.00651
37.00686
37.00725
37.00755
37.00801
37.00816
37.00999
37.03881
37.04032
37.03847
37.03697
37.03554
37.0336
37.03197
37.03066
37.02961
37.02879
37.02816
37.02769
37.02737
37.0272
37.02716
37.02727
37.02751
37.02791
37.02845
37.02918
37.0301
37.03128
37.03275
37.03453
37.03638
37.03766
37.03937
37.04142
37.0356
37.07388
37.07135
37.06876
37.06653
37.06418
37.06073
37.05782
37.05547
37.0536
37.05213
37.05099
37.05015
37.04958
37.04927
37.0492
37.04939
37.04983
37.05054
37.05152
37.05282
37.05448
37.05658
37.0592
37.06239
37.06558
37.06758
37.07004
37.07257
37.10913
37.10286
37.09906
37.09618
37.09293
37.08796
37.0838
37.08044
37.07777
37.07566
37.07403
37.07283
37.07201
37.07155
37.07146
37.07173
37.07237
37.07338
37.07479
37.07665
37.07903
37.08203
37.08578
37.09035
37.09491
37.09754
37.1008
37.10557
37.13675
37.13358
37.12946
37.126
37.12171
37.11521
37.10984
37.10552
37.10207
37.09934
37.09723
37.09566
37.0946
37.09401
37.09389
37.09424
37.09507
37.09638
37.09821
37.10062
37.1037
37.10756
37.11239
37.11833
37.12434
37.12769
37.13141
37.13587
37.16985
37.16452
37.16034
37.1559
37.15044
37.14244
37.1359
37.13065
37.12645
37.12312
37.12053
37.11861
37.1173
37.11659
37.11644
37.11687
37.11788
37.11949
37.12174
37.12469
37.12844
37.13313
37.139
37.14625
37.15376
37.15812
37.16248
37.16715
37.20176
37.19777
37.19085
37.18544
37.1791
37.16964
37.16194
37.15579
37.15087
37.14694
37.14389
37.14163
37.14009
37.13925
37.13908
37.13958
37.14077
37.14267
37.14531
37.14879
37.15319
37.15869
37.16557
37.17415
37.18295
37.18806
37.19387
37.19897
37.22576
37.22031
37.21481
37.20765
37.19668
37.18788
37.18089
37.17526
37.17077
37.16727
37.16468
37.16291
37.16195
37.16175
37.16233
37.16369
37.16587
37.1689
37.17289
37.17792
37.18419
37.19202
37.2019
37.21207
37.21755
37.22306
37.22772
37.25719
37.25168
37.24441
37.23583
37.22342
37.21365
37.20589
37.1996
37.19456
37.19063
37.18771
37.18573
37.18465
37.18443
37.18508
37.1866
37.18905
37.19246
37.19694
37.20258
37.20956
37.21824
37.22927
37.24104
37.24793
37.25602
37.26054
37.29865
37.29162
37.28183
37.27164
37.25791
37.24713
37.23845
37.23136
37.22564
37.22116
37.21785
37.2156
37.21438
37.21413
37.21486
37.21659
37.21937
37.22325
37.22833
37.23473
37.24257
37.25221
37.26435
37.27775
37.28636
37.29431
37.34827
37.33913
37.32874
37.31511
37.30324
37.29323
37.28494
37.27822
37.27295
37.26903
37.26638
37.26494
37.26465
37.26551
37.26755
37.27082
37.27541
37.2814
37.28888
37.29801
37.30895
37.3217
37.33487
37.34409
37.35316
37.39534
37.38557
37.37145
37.35801
37.34667
37.33738
37.32985
37.3239
37.31946
37.31647
37.31484
37.31451
37.31549
37.31779
37.32149
37.32668
37.33341
37.34179
37.35207
37.36448
37.37864
37.39253
37.39999
37.4401
37.42588
37.4109
37.39856
37.3885
37.38031
37.37382
37.36896
37.36568
37.36389
37.36354
37.3646
37.36713
37.37119
37.37686
37.38419
37.39327
37.40442
37.418
37.43473
37.44767
37.47725
37.46124
37.44886
37.43822
37.42947
37.42256
37.41738
37.41386
37.41195
37.41157
37.41271
37.41542
37.41976
37.42579
37.43362
37.44331
37.45486
37.46803
37.48638
37.52179
37.51017
37.49787
37.48662
37.47736
37.47007
37.46461
37.4609
37.45887
37.45847
37.45968
37.46254
37.46712
37.47348
37.48174
37.492
37.50424
37.51682
37.55851
37.54518
37.53369
37.52404
37.51636
37.51062
37.50671
37.50453
37.5041
37.5054
37.50845
37.51325
37.51996
37.52863
37.53924
37.55205
37.56472
37.58856
37.57797
37.5688
37.56103
37.55533
37.55128
37.5489
37.54843
37.54985
37.55313
37.55792
37.56471
37.57329
37.58311
37.59321
37.62196
37.61074
37.60339
37.59833
37.59406
37.59156
37.59115
37.59252
37.59611
37.60065
37.60677
37.61465
37.64625
37.64065
37.63413
37.63165
37.63147
37.63236
37.63813
37.64309
37.65211
37.66677
37.66576
37.00912
37.00821
37.00789
37.00748
37.00715
37.00685
37.00648
37.00617
37.00592
37.00572
37.00556
37.00543
37.00534
37.00528
37.00525
37.00524
37.00526
37.00531
37.00538
37.00549
37.00563
37.00581
37.00604
37.00631
37.00665
37.00703
37.0073
37.00768
37.00807
37.00834
37.03865
37.04031
37.03892
37.03722
37.03584
37.03445
37.03259
37.03106
37.02981
37.0288
37.02801
37.0274
37.02694
37.02663
37.02646
37.02643
37.02653
37.02677
37.02715
37.02768
37.02838
37.02928
37.0304
37.03179
37.03347
37.03527
37.03649
37.03805
37.03976
37.03994
37.0743
37.07134
37.06893
37.06657
37.0645
37.06222
37.05892
37.05618
37.05394
37.05215
37.05073
37.04963
37.04881
37.04826
37.04795
37.04789
37.04808
37.0485
37.04918
37.05014
37.05139
37.053
37.055
37.05749
37.0605
37.06359
37.06549
37.06773
37.07015
37.07273
37.10948
37.10285
37.09901
37.09592
37.09324
37.0901
37.08539
37.08146
37.07826
37.07569
37.07365
37.07207
37.0709
37.0701
37.06967
37.06958
37.06984
37.07045
37.07144
37.07281
37.07461
37.07691
37.07978
37.08333
37.08765
37.09201
37.09454
37.0974
37.10079
37.10563
37.13646
37.13357
37.12924
37.12551
37.12215
37.11807
37.11193
37.10684
37.10271
37.09938
37.09674
37.09468
37.09316
37.09213
37.09156
37.09145
37.09179
37.09259
37.09386
37.09564
37.09798
37.10095
37.10466
37.10926
37.11486
37.12056
37.12379
37.12731
37.13134
37.13576
37.16937
37.16452
37.15984
37.15539
37.15115
37.14603
37.13847
37.13226
37.12722
37.12317
37.11994
37.11742
37.11556
37.11429
37.11359
37.11345
37.11387
37.11485
37.11641
37.11859
37.12146
37.12508
37.12961
37.1352
37.14207
37.14915
37.15323
37.15759
37.16216
37.16693
37.19776
37.19081
37.18507
37.17996
37.17388
37.16496
37.15767
37.15177
37.14701
37.1432
37.14024
37.13804
37.13654
37.13572
37.13556
37.13605
37.1372
37.13905
37.14162
37.14499
37.14926
37.15456
37.16112
37.16921
37.17757
37.18245
37.18784
37.19404
37.20012
37.22575
37.22003
37.21416
37.2085
37.20156
37.19132
37.18301
37.17629
37.17085
37.16649
37.16309
37.16056
37.15885
37.15791
37.15773
37.15829
37.15961
37.16172
37.16468
37.16854
37.17342
37.17947
37.18694
37.19619
37.2058
37.21129
37.21708
37.22299
37.22772
37.25719
37.2506
37.24354
37.23689
37.22893
37.21747
37.20823
37.20075
37.19466
37.18977
37.18595
37.18311
37.18118
37.18012
37.17991
37.18055
37.18203
37.18441
37.18773
37.19207
37.19754
37.2043
37.2126
37.2229
37.23377
37.24015
37.24705
37.25405
37.25855
37.29865
37.28974
37.28115
37.27326
37.2641
37.25135
37.24105
37.23264
37.22576
37.22021
37.21587
37.21264
37.21045
37.20925
37.20901
37.20973
37.21142
37.21412
37.2179
37.22283
37.22903
37.23664
37.24594
37.25737
37.26963
37.27711
37.28527
37.29461
37.34899
37.34046
37.33165
37.32167
37.30787
37.29623
37.28645
37.27839
37.27186
37.26673
37.26291
37.26032
37.25891
37.25862
37.25947
37.26146
37.26466
37.26913
37.27494
37.28222
37.29111
37.30181
37.31444
37.32767
37.33592
37.34535
37.35353
37.3958
37.38822
37.37785
37.36313
37.3501
37.3391
37.33003
37.32268
37.31689
37.31256
37.30962
37.30802
37.3077
37.30866
37.31092
37.31454
37.3196
37.32616
37.33434
37.34434
37.35637
37.37029
37.38415
37.39257
37.4004
37.44294
37.43283
37.41659
37.40223
37.39033
37.3805
37.37248
37.36614
37.36138
37.35816
37.35639
37.35604
37.3571
37.35958
37.36357
37.36911
37.37627
37.38517
37.396
37.40907
37.4247
37.44017
37.44691
37.48455
37.46704
37.45233
37.4401
37.42969
37.42112
37.41432
37.40923
37.40576
37.40386
37.40349
37.40462
37.4073
37.41157
37.41751
37.42518
37.43467
37.446
37.45923
37.47685
37.49615
37.51496
37.50141
37.4886
37.47762
37.46856
37.46137
37.45598
37.4523
37.45028
37.44988
37.45109
37.45393
37.45845
37.46474
37.47285
37.48287
37.49481
37.50878
37.52101
37.56533
37.55171
37.53575
37.52417
37.51473
37.50719
37.50154
37.49768
37.49554
37.49511
37.49639
37.4994
37.50414
37.51073
37.51922
37.52964
37.54266
37.55834
37.59379
37.58293
37.56924
37.55939
37.55157
37.5458
37.54178
37.53951
37.53907
37.54042
37.54359
37.54844
37.55523
37.56409
37.57492
37.58724
37.63061
37.61407
37.60248
37.59457
37.58868
37.58431
37.58193