
21909
(
33.02188
32.84275
32.77728
32.85837
32.84685
32.85287
32.77937
32.77813
32.84373
32.78321
32.73786
32.7628
32.60001
32.67685
32.67469
32.71747
32.97782
32.87588
32.84813
33.01201
32.97783
32.87589
32.80459
32.99307
32.89352
32.89128
32.84659
32.85737
32.89353
32.89127
32.91258
32.90211
32.81657
32.84617
32.8493
32.97785
32.97522
32.88103
32.86699
32.93821
32.88339
32.86761
32.91547
32.88107
32.86703
32.76334
32.80371
32.83892
32.80206
32.81073
32.75686
32.76339
32.80375
32.6965
32.72892
32.76603
32.72993
32.71702
32.6834
32.69656
32.72897
32.63441
32.66463
32.69328
32.6565
32.65286
32.62631
32.63448
32.66469
32.59648
32.60911
32.62283
32.57089
32.60871
32.61608
32.59656
32.60918
32.52482
32.57223
32.50742
32.47004
32.60045
32.58835
32.5249
32.57231
32.56854
32.51441
32.50146
32.56125
32.56857
32.51444
32.53779
32.49604
32.47919
32.49545
32.4803
32.4727
32.50228
32.49547
32.48033
32.46852
32.5007
32.45008
32.43364
32.54961
32.45706
32.4148
32.55103
32.54969
32.45716
32.44059
32.45011
32.43368
32.42802
32.38678
32.33893
32.46847
32.52193
32.51312
32.48281
32.46855
32.522
32.38682
32.33895
32.27895
32.3201
32.4035
32.41438
32.4214
32.4049
32.51739
32.49509
32.43467
32.50283
32.51743
32.49513
32.40358
32.41446
32.30622
32.24772
32.29101
32.3528
32.44658
32.37298
32.39951
32.37363
32.33717
32.37672
32.39954
32.37368
32.44663
32.37303
32.2911
32.35287
32.36894
32.34702
32.40571
32.40903
32.40262
32.42538
32.42744
32.3862
32.37477
32.43126
32.42746
32.38621
32.40264
32.42541
32.40577
32.40908
32.369
32.34709
32.32038
32.31302
32.3396
32.32702
32.29918
32.3854
32.3475
32.40943
32.32286
32.29921
32.38542
32.34754
32.33965
32.3408
32.32765
32.31492
33.08193
32.85286
33.01602
33.23998
33.01419
32.84649
32.8381
33.0107
32.83093
32.81955
32.93573
32.98307
32.8005
32.77559
32.87089
32.90345
32.74709
32.71645
32.80121
32.83667
32.76466
32.68455
32.65209
32.72666
32.61986
32.58962
32.64512
32.68684
32.56657
32.61519
32.56319
32.60271
32.62827
32.60584
32.61973
32.65645
32.62831
32.6059
32.50086
32.53025
32.57867
32.55923
32.54415
32.57928
32.57873
32.55929
32.45768
32.47433
32.43267
32.4944
32.53548
32.52955
32.57416
32.36304
32.39381
32.52807
32.4581
32.40704
32.36669
32.42186
32.40315
32.40101
32.43843
32.42203
32.4033
32.38142
32.40132
32.33219
32.30446
32.39838
32.36467
32.38161
32.4015
32.32009
32.2768
32.41428
32.36291
32.35722
32.36108
32.40006
32.40217
32.36196
32.36121
32.4002
32.34701
32.39354
32.31609
32.34964
32.31677
32.34717
32.30629
32.32381
32.30511
32.31623
32.34976
32.249
32.22662
32.24812
32.22178
32.22675
32.2707
32.3025
32.26307
32.2349
32.24913
32.17183
32.23464
32.27712
32.21854
32.19729
32.2685
32.24119
32.31513
32.28259
32.28624
32.30211
32.31523
32.28268
32.26862
32.24131
32.17196
32.23478
32.28512
32.32082
32.29266
32.26583
32.30934
32.33458
32.32086
32.2927
32.26589
32.28519
32.29601
32.28739
32.23778
32.87993
33.07921
33.09162
32.887
32.91514
32.89118
32.89532
32.91906
33.06264
33.01229
32.99103
33.02263
33.03057
33.09324
33.0627
33.01234
33.05887
33.00025
33.0622
33.01885
33.07103
33.02012
32.95318
32.90729
32.97335
32.86225
32.81746
32.87882
32.92577
32.77274
32.72841
32.78927
32.83318
32.68469
32.64137
32.70329
32.7465
32.65854
32.59823
32.55549
32.6126
32.51405
32.47629
32.52354
32.56693
32.44831
32.44161
32.45494
32.48492
32.51697
32.56119
32.5911
32.53529
32.5171
32.56131
32.4574
32.44195
32.47823
32.54785
32.56399
32.52704
32.56163
32.36417
32.42003
32.50658
32.44681
32.31306
32.3183
32.38904
32.34838
32.47638
32.46346
32.48623
32.43566
32.38573
32.44356
32.4621
32.48643
32.43584
32.35247
32.35008
32.3394
32.438
32.29154
32.32404
32.35005
32.31857
32.30227
32.27878
32.22749
32.28836
32.31453
32.30259
32.25798
32.26126
32.23061
32.24805
32.29001
32.28167
32.23954
32.27088
32.25821
32.26147
32.24193
32.26387
32.26302
32.29578
32.33652
32.28441
32.23821
32.24895
32.24212
32.26405
32.28727
32.22536
32.25721
32.27669
32.29306
32.28094
32.24419
32.28442
32.29077
32.31478
32.31232
32.28446
32.29082
32.28103
32.24427
32.29178
32.2932
32.28739
33.3604
33.13897
32.99382
33.10142
33.10112
33.00145
33.02677
33.10626
33.02137
33.0747
33.1161
33.11887
33.08107
33.08159
33.06552
33.05679
33.08956
33.03027
32.9893
32.9814
33.02027
32.94143
32.94617
32.90282
32.90133
32.86029
32.81894
32.82146
32.86139
32.77809
32.73594
32.73772
32.78069
32.69129
32.64497
32.64697
32.69243
32.60452
32.59899
32.55537
32.56367
32.51625
32.48477
32.50661
32.52668
32.46293
32.45719
32.53578
32.53016
32.59272
32.53655
32.5509
32.51886
32.58654
32.54683
32.49847
32.49098
32.54669
32.3884
32.43341
32.44703
32.40708
32.47834
32.39803
32.42384
32.45919
32.51422
32.39658
32.43033
32.43839
32.4908
32.38786
32.40782
32.41253
32.41743
32.32784
32.38817
32.40814
32.36222
32.34372
32.29331
32.29694
32.35406
32.34974
32.34015
32.24131
32.3297
32.30323
32.32379
32.25231
32.31043
32.29618
32.31187
32.2718
32.25708
32.31063
32.28543
32.31077
32.2965
32.22048
32.19297
32.22147
32.32634
32.28023
32.2913
32.34041
32.30422
32.28147
32.23544
32.30222
32.28309
32.3045
32.28173
32.23575
32.29163
32.20639
32.1767
32.22156
32.30318
32.24727
32.27775
32.25277
32.27948
32.27294
32.33379
32.3588
32.25451
32.27879
32.37319
32.35886
32.25457
32.27307
32.33392
32.27969
32.30336
33.43308
33.17198
33.07288
33.31406
33.16085
33.14125
33.04695
33.06365
33.11632
33.08789
32.99745
33.02446
33.0561
33.02098
32.93371
32.96688
32.9834
32.94473
32.86448
32.89906
32.90627
32.86866
32.8065
32.83229
32.83223
32.79338
32.82069
32.79674
32.74893
32.70243
32.76809
32.80646
32.65745
32.61891
32.69157
32.72686
32.598
32.61591
32.64651
32.70544
32.68079
32.60583
32.67053
32.6565
32.59828
32.59382
32.5628
32.62137
32.64679
32.62154
32.56705
32.58952
32.58357
32.54584
32.48565
32.5289
32.50592
32.46391
32.40559
32.44095
32.43647
32.4639
32.52286
32.43184
32.49051
32.5224
32.51538
32.53275
32.51258
32.45333
32.43846
32.39003
32.45164
32.44684
32.37179
32.38462
32.37171
32.37486
32.38827
32.40916
32.38203
32.2673
32.28187
32.41235
32.2517
32.28101
32.27077
32.32376
32.25294
32.33436
32.27947
32.37143
32.33301
32.26868
32.33629
32.28878
32.29554
32.33209
32.26453
32.24107
32.31128
32.31968
32.2893
32.29603
32.30676
32.33043
32.3018
32.30357
32.31441
32.31183
32.32204
32.3256
32.30724
32.33087
32.27857
32.28951
32.29688
32.28112
32.3326
32.30738
32.32996
32.29186
32.32869
32.30768
32.33028
32.35853
32.33304
32.27893
32.34872
32.30979
32.33654
32.29473
32.29082
32.36745
32.31332
32.29087
32.34878
33.26677
33.44364
33.18171
33.10312
33.09709
33.17515
33.1607
33.08306
33.06265
33.13982
33.11429
33.03739
33.00868
33.08556
33.05479
32.97775
32.94585
33.02288
32.99056
32.9145
32.88604
32.95894
32.93073
32.86526
32.86862
32.91578
32.90899
32.90218
32.84035
32.87126
32.88221
32.84055
32.76071
32.80015
32.79581
32.75031
32.72157
32.7349
32.70726
32.6716
32.66023
32.69678
32.65432
32.67643
32.57766
32.61893
32.66882
32.63792
32.52028
32.5418
32.60613
32.59413
32.56452
32.54212
32.53408
32.58888
32.56577
32.5204
32.54117
32.55056
32.54952
32.55005
32.5307
32.54916
32.4553
32.49295
32.51792
32.51408
32.49653
32.46893
32.45059
32.45708
32.49997
32.42062
32.37528
32.36025
32.38109
32.38691
32.37981
32.34316
32.40478
32.40193
32.39099
32.42183
32.26841
32.28195
32.30416
32.38618
32.32952
32.2877
32.26956
32.25343
32.2735
32.26509
32.33553
32.26488
32.24766
32.26552
32.35661
32.37004
32.27155
32.21391
32.25217
32.26235
32.32522
32.23405
32.24991
32.33336
32.31913
32.3161
32.24475
32.30899
32.31557
32.31847
32.36215
32.31812
32.23186
32.30956
32.31618
32.29994
32.30147
32.30577
32.34726
32.36472
32.31217
32.31997
32.2955
32.3715
32.37449
32.35199
32.3422
32.36899
32.35887
32.35203
32.34225
32.29573
32.37191
32.32071
32.30624
33.18452
33.44206
33.33761
33.10924
33.15815
33.17518
33.10031
33.08422
33.11029
33.13585
33.0634
33.04099
33.05747
33.08341
33.02254
33.01764
32.99664
33.02996
33.05087
33.04899
32.92797
32.96043
33.02078
32.99187
33.00566
32.95187
32.92481
32.91148
32.98514
32.96897
32.91235
32.87851
32.93937
32.89911
32.83808
32.79716
32.85662
32.81507
32.75921
32.72806
32.77653
32.75175
32.72132
32.74536
32.73596
32.72363
32.69737
32.6803
32.70859
32.66172
32.66355
32.63773
32.66646
32.6151
32.57217
32.61571
32.65051
32.52699
32.51082
32.57606
32.582
32.55232
32.58241
32.61388
32.57223
32.54275
32.54239
32.56304
32.5782
32.53608
32.42214
32.45737
32.5018
32.46751
32.45158
32.41836
32.42843
32.45085
32.46611
32.43755
32.40293
32.44292
32.44439
32.40258
32.39323
32.38453
32.39256
32.39453
32.40609
32.3713
32.30682
32.36681
32.35829
32.37241
32.35243
32.23593
32.25593
32.33104
32.33285
32.36439
32.34511
32.34862
32.30322
32.32254
32.30695
32.18798
32.24291
32.25741
32.19537
32.21317
32.24328
32.22056
32.22912
32.26831
32.2977
32.28305
32.21231
32.21163
32.2328
32.30956
32.29185
32.28677
32.29116
32.28319
32.22938
32.22482
32.28165
32.32264
32.37919
32.38868
32.37533
32.38984
32.39202
32.32116
32.37675
32.39102
32.32365
32.38037
32.28267
32.29207
33.13994
33.33414
33.39091
33.20459
33.11662
33.13192
33.19689
33.18199
33.16111
33.13517
33.07195
33.09589
33.03242
33.04863
33.10486
33.0709
33.05753
33.05894
33.03502
32.99906
33.08527
33.1039
33.05764
33.05903
32.98728
33.02315
32.96276
32.9281
33.07654
33.04252
32.98741
33.02327
32.95157
32.96352
32.90227
32.93168
32.9523
33.02101
33.00658
32.95174
32.96367
32.97237
32.93012
32.95326
32.97856
32.91721
32.88469
32.83779
32.86499
32.7904
32.74354
32.77171
32.81797
32.69978
32.66473
32.68734
32.72733
32.64559
32.68349
32.70304
32.67401
32.65589
32.71522
32.7414
32.73502
32.73875
32.6698
32.70211
32.69322
32.63924
32.6062
32.63101
32.5839
32.54543
32.63938
32.62109
32.58327
32.67488
32.66629
32.65929
32.61321
32.59072
32.60797
32.55167
32.48547
32.52339
32.5561
32.46536
32.48848
32.5054
32.4899
32.4649
32.49072
32.4887
32.49972
32.49096
32.48927
32.46535
32.4433
32.43394
32.45
32.38259
32.41624
32.39705
32.35942
32.3034
32.32122
32.33781
32.3097
32.29644
32.31276
32.28771
32.28115
32.29188
32.34043
32.37891
32.32395
32.24224
32.3198
32.35067
32.29892
32.2805
32.29886
32.36907
32.37732
32.29799
32.2573
32.17392
32.20512
32.21116
32.3044
32.29538
32.31704
32.3723
32.21977
32.19136
32.30548
32.29654
32.22432
32.23506
32.31265
32.27126
32.36041
32.29887
32.33168
32.35938
32.29639
32.36814
32.33279
32.31374
33.22874
33.41425
33.42747
33.23828
33.20878
33.22213
33.23297
33.22167
33.16604
33.18979
33.20548
33.18457
33.10741
33.13832
33.15896
33.12913
33.03802
33.07388
33.09585
33.05983
32.96151
33.0003
33.0217
32.98214
32.88672
32.92298
32.94188
32.9016
32.83374
32.85567
32.86206
32.82484
32.87397
32.85933
32.79303
32.77371
32.89969
32.92406
32.87425
32.85958
32.89519
32.84731
32.87599
32.85009
32.87476
32.79938
32.75045
32.78945
32.83629
32.74103
32.70239
32.65823
32.6936
32.62591
32.65248
32.60915
32.64889
32.66818
32.65898
32.65809
32.69825
32.66865
32.65945
32.64354
32.61243
32.58115
32.66216
32.61974
32.55882
32.59839
32.64595
32.58852
32.62236
32.66066
32.68329
32.64721
32.55408
32.55498
32.65925
32.57332
32.57628
32.55729
32.55079
32.53886
32.48787
32.51062
32.4992
32.5042
32.50577
32.50834
32.51376
32.49171
32.51444
32.50822
32.48242
32.49777
32.49113
32.48185
32.43823
32.42769
32.40888
32.46091
32.44945
32.36718
32.3381
32.33852
32.40267
32.38666
32.3292
32.37004
32.32474
32.29753
32.34352
32.36209
32.30864
32.3221
32.2877
32.30567
32.24974
32.23104
32.326
32.37098
32.355
32.29053
32.35611
32.29939
32.22049
32.22115
32.25604
32.27113
32.29428
32.33102
32.33477
32.3
32.27149
32.25123
32.23667
32.27597
32.31054
32.32001
32.27633
32.30411
32.28388
32.3195
32.24557
32.27631
32.22674
32.2983
32.30547
32.28549
32.21414
33.26075
33.15426
33.22589
33.40765
33.26085
33.15435
33.04801
33.20729
33.17265
33.20264
33.23355
33.23229
33.17274
33.20276
33.1761
33.12992
33.06461
33.22699
33.22386
33.20329
33.22208
33.14874
33.17845
33.20087
33.17109
33.07795
33.11495
33.13517
33.09554
32.99792
33.03869
33.05397
33.01141
32.96829
32.9249
32.91392
32.95617
32.83076
32.87179
32.88155
32.83878
32.75963
32.79236
32.79757
32.75961
32.77915
32.7393
32.72809
32.70953
32.78817
32.81029
32.84679
32.80935
32.81732
32.76336
32.71497
32.73274
32.77927
32.66685
32.62065
32.63231
32.68262
32.57908
32.54952
32.54391
32.58453
32.58133
32.61543
32.64624
32.61927
32.52571
32.58194
32.61607
32.59854
32.58203
32.63095
32.64604
32.66093
32.64126
32.63387
32.59088
32.61472
32.64883
32.62473
32.55979
32.59817
32.56749
32.5296
32.55916
32.52739
32.52305
32.51191
32.54641
32.49675
32.48979
32.51231
32.50808
32.49665
32.46467
32.50038
32.47152
32.47486
32.47786
32.51415
32.4607
32.45988
32.44018
32.46692
32.38138
32.38694
32.43453
32.36104
32.42439
32.3969
32.38675
32.39465
32.39954
32.43805
32.39502
32.37264
32.40978
32.36764
32.31264
32.34985
32.30851
32.39438
32.3876
32.3676
32.35735
32.22021
32.24052
32.27961
32.33234
32.32573
32.28186
32.36936
32.37087
32.38868
32.39146
32.37974
32.37255
32.29719
32.26232
32.30387
32.34175
32.36445
32.33349
32.2909
32.29076
32.33043
32.25467
32.33509
32.23015
32.20881
32.2929
32.29305
32.21505
33.20737
33.03899
33.04809
33.20737
33.0647
33.04637
33.06135
33.13001
33.17396
33.09138
33.17342
33.17549
33.19813
33.19111
33.22025
33.22056
33.1915
33.10897
33.15198
33.1524
33.10945
33.02058
33.06485
33.06539
33.02118
32.93231
32.97639
32.97702
32.93296
32.84508
32.88844
32.8891
32.84572
32.76296
32.80284
32.80344
32.76348
32.70102
32.72759
32.72804
32.70141
32.75444
32.69016
32.69047
32.75477
32.75845
32.79215
32.74822
32.75525
32.79869
32.7026
32.69652
32.64325
32.6481
32.59204
32.54752
32.54972
32.59561
32.52449
32.58031
32.59896
32.58148
32.5254
32.64427
32.66554
32.6674
32.64674
32.57238
32.59836
32.55553
32.51947
32.54117
32.64715
32.61669
32.57305
32.59901
32.50204
32.50328
32.47568
32.50663
32.47509
32.47898
32.45253
32.48014
32.44446
32.46989
32.48435
32.46968
32.49413
32.52605
32.45241
32.48531
32.47069
32.43011
32.41234
32.49471
32.49258
32.47655
32.50713
32.4532
32.50753
32.53265
32.49468
32.46623
32.51557
32.49338
32.46815
32.44976
32.50892
32.425
32.36457
32.36641
32.36719
32.45194
32.39894
32.397
32.38936
32.33645
32.33331
32.41545
32.33253
32.35929
32.37018
32.38573
32.42862
32.34302
32.37139
32.27487
32.28489
32.37993
32.31214
32.31477
32.37104
32.4357
32.39584
32.26899
32.35395
32.38014
32.36897
32.33527
32.28046
32.31369
32.39612
32.38817
32.39731
32.40155
32.39878
32.39957
32.26312
32.29441
32.33195
32.36524
32.34176
32.30434
32.29461
32.2934
32.31366
32.39469
32.32588
32.34735
32.2961
32.29182
32.37632
32.34919
33.26087
33.40775
33.226
33.15438
33.17279
33.23242
33.23371
33.20285
33.22228
33.20355
33.22432
33.22733
33.17177
33.20145
33.17875
33.14909
33.09636
33.13591
33.11534
33.0784
33.01246
33.05491
33.03923
32.99853
32.95683
32.9146
32.92604
32.96941
32.83989
32.88268
32.87245
32.83138
32.76049
32.79859
32.79294
32.76014
32.7102
32.72887
32.73976
32.77957
32.78859
32.75275
32.78368
32.81765
32.79249
32.74855
32.733
32.77954
32.69687
32.64365
32.6326
32.68289
32.5925
32.54799
32.54426
32.58486
32.58085
32.5986
32.58238
32.52607
32.52496
32.64715
32.66778
32.66627
32.64504
32.5197
32.55584
32.59897
32.57283
32.5415
32.50538
32.47664
32.50888
32.47524
32.50226
32.45566
32.48112
32.48137
32.45597
32.48998
32.46121
32.4587
32.4256
32.46
32.43046
32.42709
32.38288
32.40596
32.45129
32.47281
32.53419
32.49834
32.4527
32.47421
32.46591
32.45616
32.44848
32.49219
32.44992
32.5145
32.49621
32.46023
32.41401
32.38683
32.43706
32.44697
32.48955
32.4992
32.4724
32.46432
32.4329
32.47646
32.48821
32.48283
32.50095
32.42609
32.49679
32.48627
32.46451
32.44829
32.45711
32.51644
32.40725
32.41046
32.44105
32.46343
32.49795
32.42541
32.4198
32.34198
32.33523
32.43009
32.35251
32.3491
32.35673
32.34433
32.25446
32.21987
32.25746
32.37557
32.38913
32.36976
32.33757
32.30114
32.34313
32.39317
32.37803
32.38255
32.38726
32.39068
32.39801
32.28571
32.26248
32.27762
32.30191
32.3394
32.31786
32.3463
32.31027
32.34836
32.27512
32.33281
32.32411
32.3706
32.424
32.41365
32.37203
32.42575
32.33512
32.34844
32.38749
33.23833
33.42752
33.41426
33.22875
33.22173
33.23302
33.22214
33.20879
33.18463
33.20553
33.1898
33.16604
33.13832
33.10742
33.12921
33.15903
33.05996
33.09595
33.07388
33.03803
32.98234
33.02188
33.00031
32.96153
32.90181
32.94209
32.92298
32.88673
32.85568
32.83375
32.82504
32.86226
32.77389
32.79322
32.85936
32.87401
32.85022
32.81255
32.84303
32.87613
32.84702
32.80951
32.78956
32.83642
32.76349
32.71508
32.6937
32.74114
32.66694
32.62074
32.60922
32.64898
32.57917
32.54961
32.61249
32.58123
32.58163
32.61949
32.64647
32.61576
32.64175
32.66143
32.64626
32.63114
32.6491
32.63111
32.64767
32.61715
32.61504
32.54916
32.5036
32.47594
32.50216
32.53086
32.45285
32.47936
32.47004
32.44457
32.48032
32.42592
32.44853
32.41268
32.4528
32.45909
32.38305
32.42723
32.47301
32.45154
32.40625
32.46765
32.51151
32.47525
32.5118
32.46792
32.41167
32.3962
32.40451
32.43589
32.46448
32.44645
32.51227
32.54243
32.55685
32.50206
32.51347
32.47493
32.53863
32.51759
32.52153
32.52326
32.49356
32.55493
32.5166
32.46503
32.45934
32.54803
32.50735
32.4418
32.503
32.42476
32.33953
32.38089
32.46752
32.44697
32.47689
32.42444
32.32946
32.4123
32.35788
32.43886
32.34013
32.33502
32.34789
32.3448
32.34512
32.45045
32.41331
32.31047
32.347
32.35468
32.30345
32.26617
32.25324
32.31206
32.33485
32.31815
32.31414
32.33071
32.36378
32.36059
32.37467
32.39331
32.38789
32.36243
32.43449
32.28079
32.28297
32.37793
32.39687
32.34439
32.39302
32.37893
32.41012
32.38941
32.40177
32.38881
32.41449
32.46902
32.45854
32.3908
32.41541
32.47008
32.4117
32.395
32.38104
32.41567
32.41171
32.35417
33.20459
33.39091
33.33413
33.13993
33.13191
33.11661
33.18199
33.19689
33.13516
33.1611
33.09588
33.07193
33.07088
33.10484
33.04862
33.0324
32.99903
33.03499
33.05893
33.05752
33.02312
32.98724
32.92806
32.96272
32.93164
32.90222
32.96348
32.95154
32.95226
32.97867
32.94344
32.93008
32.95339
32.89979
32.92417
32.86516
32.91736
32.92563
32.81816
32.89531
32.84744
32.77191
32.79952
32.75059
32.68756
32.72754
32.70254
32.65837
32.67425
32.65612
32.62605
32.65261
32.67174
32.67385
32.68543
32.66829
32.69833
32.65817
32.65908
32.61985
32.66229
32.59847
32.5589
32.66074
32.62246
32.5886
32.64603
32.68336
32.6341
32.59118
32.55532
32.65953
32.6555
32.56755
32.59822
32.55984
32.55924
32.5297
32.54679
32.50616
32.48784
32.51231
32.48439
32.52607
32.49411
32.4697
32.5345
32.49873
32.47697
32.50752
32.49589
32.45026
32.49256
32.44864
32.45619
32.46595
32.40529
32.43648
32.44285
32.41457
32.38747
32.38396
32.53125
32.46708
32.5023
32.51379
32.50862
32.40229
32.38734
32.38161
32.38732
32.40227
32.40996
32.48466
32.55414
32.52485
32.4633
32.47206
32.40503
32.4065
32.33967
32.40906
32.379
32.36097
32.37976
32.30714
32.46168
32.42177
32.44233
32.47799
32.44016
32.40263
32.31526
32.40298
32.30347
32.31613
32.41807
32.33279
32.40201
32.43426
32.43076
32.42618
32.33609
32.38313
32.2769
32.24011
32.23914
32.31731
32.3987
32.31729
32.3577
32.41362
32.31593
32.24178
32.24814
32.32145
32.36222
32.34715
32.31074
32.34522
32.32967
32.36726
32.394
32.35067
32.36894
32.39355
32.39778
32.35984
32.39494
32.36599
32.40293
32.35702
32.41267
32.37959
32.356
32.43726
32.44829
32.36242
32.35667
32.43787
32.41388
32.38092
32.40483
32.35877
33.10923
33.3376
33.44205
33.18451
33.08421
33.1003
33.17517
33.15814
33.04097
33.06339
33.13584
33.11028
33.01762
33.02252
33.0834
33.05745
33.04896
33.05084
33.02994
32.99663
33.0854
33.10404
33.04923
33.05108
32.99185
33.02076
32.96042
32.92796
33.07668
33.04266
32.99215
33.02104
32.92481
32.95186
33.00565
32.98512
32.91147
33.02117
33.00675
33.00602
32.98545
32.97255
32.93032
32.93957
32.96915
32.88491
32.83802
32.85685
32.89933
32.79065
32.74381
32.7768
32.81532
32.70006
32.66502
32.73626
32.75204
32.64589
32.68382
32.68063
32.70891
32.71526
32.7388
32.73507
32.74145
32.71585
32.73938
32.69004
32.66681
32.66205
32.6393
32.69328
32.70216
32.66986
32.5455
32.58396
32.63107
32.60627
32.67497
32.58335
32.62116
32.63948
32.66639
32.65979
32.6476
32.55451
32.6085
32.53906
32.55094
32.55746
32.57651
32.57364
32.50458
32.4995
32.51102
32.48845
32.50631
32.52789
32.52357
32.50594
32.50076
32.49008
32.49684
32.50815
32.51247
32.4915
32.49836
32.50332
32.49246
32.51513
32.47463
32.47138
32.50017
32.46431
32.47756
32.49523
32.49312
32.47636
32.473
32.49448
32.53239
32.5073
32.51544
32.46608
32.51507
32.49678
32.53188
32.50972
32.49411
32.50929
32.47241
32.4992
32.48958
32.44703
32.46434
32.51277
32.54298
32.47498
32.50162
32.49354
32.52322
32.5215
32.51752
32.53846
32.5548
32.47353
32.46392
32.52564
32.55454
32.48529
32.46528
32.42449
32.44979
32.40954
32.40472
32.42047
32.53683
32.47566
32.42591
32.49554
32.4897
32.52361
32.49102
32.48939
32.4528
32.4664
32.44963
32.51441
32.46561
32.45507
32.47012
32.36516
32.39712
32.41218
32.31569
32.3537
32.43487
32.38382
32.42923
32.44783
32.4605
32.34915
32.40477
32.30786
32.40884
32.4356
32.23057
32.29125
32.41021
32.31364
32.26299
32.29323
32.43308
32.47872
32.42784
32.42255
32.35075
32.36119
32.39437
32.37204
32.39233
32.40765
32.40502
32.36956
32.34239
32.42206
32.40974
32.39869
32.40777
32.41398
32.39563
32.42717
32.42889
32.41872
32.4496
32.41481
32.38286
32.37205
32.35426
32.34911
32.38355
32.37279
32.42025
32.45142
32.42979
32.43118
33.26677
33.10312
33.18171
33.44363
33.26698
33.10333
33.07304
33.31422
33.09709
33.08306
33.1607
33.17515
33.09731
33.08328
33.04711
33.06381
33.06265
33.03739
33.11429
33.13982
33.06288
33.03763
32.99762
33.02463
33.00868
32.97775
33.05479
33.08556
33.00894
32.97802
32.9339
32.96706
32.94585
32.9145
32.99056
33.02288
32.94613
32.91481
32.86469
32.89926
32.88604
32.86526
32.93073
32.95894
32.83251
32.88636
32.8656
32.80673
32.86862
32.90218
32.90899
32.91578
32.86897
32.90255
32.84811
32.82093
32.79698
32.84056
32.88221
32.87126
32.84035
32.80016
32.76072
32.75031
32.79582
32.67161
32.70727
32.73491
32.72158
32.67645
32.65433
32.6968
32.66025
32.63794
32.66884
32.61895
32.57768
32.72406
32.6978
32.63863
32.66949
32.59417
32.60615
32.54182
32.5203
32.664
32.6382
32.59493
32.60687
32.61558
32.57266
32.58944
32.56506
32.61099
32.52749
32.51135
32.55118
32.56635
32.55238
32.57231
32.61397
32.58249
32.55333
32.57332
32.53138
32.5498
32.53623
32.5783
32.56314
32.54248
32.54285
32.46774
32.50197
32.45751
32.42227
32.45176
32.55239
32.48622
32.46911
32.50326
32.4657
32.49029
32.50588
32.48889
32.46716
32.49186
32.48307
32.45191
32.46707
32.49976
32.4891
32.49092
32.46494
32.49092
32.50921
32.51469
32.50159
32.49078
32.48201
32.48131
32.49061
32.49735
32.48392
32.48337
32.474
32.45133
32.49048
32.43795
32.44906
32.46068
32.40876
32.42752
32.4609
32.44125
32.44028
32.45123
32.38124
32.36099
32.4345
32.38681
32.38364
32.36354
32.35611
32.34008
32.4041
32.4261
32.36578
32.39622
32.42585
32.4288
32.38926
32.39686
32.39885
32.41549
32.33338
32.33648
32.43415
32.47803
32.4024
32.41866
32.49644
32.51614
32.45684
32.448
32.46419
32.48593
32.51817
32.46668
32.50079
32.52019
32.38071
32.33934
32.42449
32.50271
32.44156
32.37888
32.30703
32.37967
32.36088
32.33145
32.32189
32.38373
32.31215
32.32146
32.42666
32.45278
32.48936
32.49097
32.52356
32.48966
32.40969
32.35667
32.46694
32.45634
32.40677
32.40602
32.32517
32.31199
32.32517
32.40602
32.42224
32.34062
32.315
32.2582
32.29842
32.28261
32.36326
32.39507
32.34174
32.3745
32.364
32.34005
32.18511
32.29223
32.25335
32.15153
32.12706
32.34933
32.32172
32.19344
32.30007
32.34532
32.22437
32.16956
32.22442
32.34363
32.36593
32.39884
32.45074
32.35271
32.3532
32.39507
32.31071
32.3909
32.40966
32.40154
32.31734
32.29413
32.39139
32.3636
32.28115
32.3492
32.22797
32.20929
32.28254
32.28506
32.38397
32.35737
32.36036
32.34562
32.3882
32.36144
32.28643
32.35477
32.26131
32.33991
32.2876
32.29746
32.3156
32.28764
32.33565
32.30892
32.35704
32.34892
32.34849
32.33947
32.36064
32.35222
32.33979
32.31323
32.26565
32.34395
32.2866
32.23097
32.26008
32.28493
32.29885
32.34563
32.33326
32.3202
32.28059
32.34512
32.32802
32.2585
32.28178
32.34646
32.34819
32.33608
32.30285
32.2902
33.43325
33.17214
33.1016
33.36059
33.16102
33.14142
33.10645
33.1013
33.1165
33.08808
33.11631
33.11906
33.0563
33.02118
33.05703
33.08978
32.98361
32.94496
32.98166
33.02052
32.90652
32.86891
32.90163
32.94171
32.83251
32.79368
32.8218
32.86171
32.74925
32.70277
32.7381
32.78105
32.65781
32.6193
32.64741
32.69284
32.59842
32.6164
32.56415
32.60498
32.60584
32.59829
32.65651
32.67054
32.60651
32.59899
32.50713
32.52718
32.62139
32.56281
32.59383
32.62156
32.64681
32.54587
32.58359
32.58954
32.56707
32.46393
32.50594
32.52892
32.48567
32.46393
32.4365
32.44097
32.40561
32.43186
32.52288
32.51541
32.52244
32.49054
32.55028
32.55084
32.5236
32.49163
32.49737
32.45624
32.43947
32.53369
32.4207
32.50005
32.45713
32.45064
32.46897
32.3603
32.37533
32.37986
32.38697
32.38116
32.41947
32.42962
32.38879
32.38284
32.403
32.40262
32.44442
32.44299
32.40492
32.40469
32.39794
32.4035
32.39242
32.39456
32.39258
32.38454
32.39323
32.4061
32.44473
32.43546
32.39563
32.40832
32.38255
32.35942
32.39701
32.41618
32.38508
32.36213
32.34994
32.36028
32.37423
32.32122
32.3034
32.29645
32.3097
32.33781
32.36893
32.33993
32.31276
32.34067
32.34355
32.29756
32.32475
32.37005
32.32922
32.39956
32.37263
32.39497
32.43806
32.37666
32.35529
32.32498
32.29023
32.30225
32.40331
32.335
32.36208
32.35296
32.41272
32.37337
32.31204
32.37978
32.28479
32.27479
32.37133
32.31468
32.41004
32.41349
32.31742
32.38488
32.33513
32.3419
32.41975
32.34903
32.35242
32.42997
32.47032
32.45006
32.35853
32.43575
32.34008
32.43879
32.35781
32.34475
32.34785
32.33498
32.46442
32.42487
32.34693
32.44527
32.31522
32.33276
32.41805
32.31611
32.30345
32.40295
32.46902
32.45259
32.31114
32.41021
32.36515
32.43486
32.35369
32.31567
32.41217
32.39711
32.31688
32.2602
32.25748
32.32036
32.41236
32.35725
32.22669
32.34416
32.37687
32.3526
32.21974
32.14002
32.13112
32.14002
32.21974
32.24939
32.34937
32.35366
32.33219
32.25408
32.27999
32.33232
32.32809
32.30853
32.33461
32.37557
32.29533
32.28712
32.2403
32.24199
32.26192
32.29021
32.15937
32.19831
32.21281
32.19239
32.17612
32.25038
32.25898
32.26403
32.22623
32.25989
32.26879
32.24114
32.24162
32.16852
32.19272
32.25424
32.23155
32.27306
32.23797
32.26165
32.23967
32.18837
32.25435
32.23949
32.28137
32.20336
32.25941
32.26906
32.26889
32.29045
32.29519
32.29369
32.30952
32.3106
32.29707
32.29541
32.27219
32.294
32.26451
32.27393
32.28764
32.2094
32.23533
32.25483
32.27912
32.27498
32.22007
32.21635
32.24501
32.22293
32.24001
32.23966
32.25826
32.24201
32.22191
32.887
33.09162
33.07921
32.87993
32.91906
32.89532
32.89119
32.91514
33.02263
32.99103
33.0123
33.06264
33.02158
33.07495
33.02292
32.9913
33.08184
33.06578
33.06248
33.01912
33.0561
33.03054
32.98959
32.97367
33.02042
32.94648
32.90316
32.87918
32.92612
32.83357
32.86065
32.81932
32.78968
32.7785
32.73636
32.70375
32.74693
32.69174
32.64545
32.61312
32.65903
32.59949
32.55589
32.52412
32.56748
32.48551
32.51679
32.48534
32.45556
32.46352
32.45781
32.4581
32.44261
32.58656
32.51887
32.55091
32.53656
32.59273
32.49848
32.54684
32.5467
32.49099
32.43342
32.38841
32.4071
32.44704
32.4592
32.42385
32.39804
32.47835
32.51363
32.45445
32.43156
32.43954
32.45947
32.39005
32.37181
32.44686
32.45167
32.39164
32.37352
32.35797
32.34516
32.32916
32.3883
32.37489
32.37172
32.38463
32.40918
32.42343
32.34492
32.28375
32.41414
32.32954
32.38621
32.30417
32.28197
32.26843
32.37338
32.30909
32.25588
32.27579
32.29386
32.33286
32.33106
32.25595
32.23594
32.35244
32.36441
32.31538
32.29055
32.32863
32.31019
32.34807
32.36503
32.31179
32.32339
32.38231
32.38212
32.32599
32.23103
32.24974
32.29053
32.35501
32.37098
32.35733
32.36757
32.38758
32.39437
32.30851
32.37102
32.26898
32.39582
32.43567
32.22494
32.2529
32.37756
32.2759
32.25572
32.2871
32.34904
32.25943
32.30498
32.34111
32.28573
32.30767
32.34511
32.31047
32.41331
32.45044
32.30689
32.25981
32.35355
32.31958
32.29259
32.34402
32.40201
32.33609
32.42619
32.43075
32.43425
32.25953
32.29335
32.41167
32.34719
32.27319
32.44783
32.42923
32.38382
32.34914
32.46049
32.34466
32.36853
32.33736
32.30073
32.23722
32.26576
32.15152
32.25334
32.29221
32.1851
32.12705
32.27998
32.25406
32.33217
32.35365
32.34937
32.33232
32.35606
32.26497
32.26082
32.24228
32.27746
32.20796
32.19746
32.19746
32.20795
32.22016
32.17615
32.18744
32.21377
32.23036
32.22871
32.12234
32.11759
32.18544
32.18585
32.15576
32.20596
32.19886
32.17778
32.21289
32.21474
32.13984
32.15345
32.16291
32.22129
32.06013
32.14457
32.20148
32.24831
32.13986
32.16428
32.1793
32.12122
32.07751
32.13911
32.15252
32.1691
32.18946
32.17754
32.19222
32.1459
32.16393
32.15949
32.16509
32.16909
32.1514
32.20709
32.21717
32.20232
32.22564
32.21554
32.22615
32.15644
32.17423
32.20573
32.1896
32.23513
32.25321
32.24861
32.23792
32.25582
32.26703
32.21058
32.19492
32.19042
32.2208
32.18943
33.24024
33.13116
33.00683
33.01628
33.01443
33.01361
33.0295
33.01095
33.03083
33.0935
32.93602
32.98334
33.03507
33.05915
33.00055
32.87121
32.90375
32.9535
32.90764
32.80157
32.83701
32.86261
32.81785
32.72708
32.76505
32.77315
32.72885
32.64559
32.68728
32.68516
32.64187
32.56372
32.60321
32.59876
32.55605
32.50147
32.53082
32.51463
32.4769
32.45836
32.47497
32.44895
32.44226
32.55456
32.51754
32.51697
32.53529
32.59111
32.56119
32.56164
32.52704
32.564
32.54785
32.47823
32.44682
32.50658
32.42004
32.36417
32.34839
32.38905
32.3183
32.31307
32.43566
32.48623
32.46347
32.47639
32.38574
32.51546
32.39791
32.34082
32.43933
32.38787
32.41744
32.41254
32.40783
32.34975
32.35407
32.29695
32.29332
32.34016
32.38397
32.26935
32.30547
32.32586
32.27078
32.28103
32.25171
32.25295
32.32376
32.2902
32.27225
32.33598
32.27137
32.26423
32.33554
32.37005
32.35662
32.26553
32.24767
32.26489
32.35192
32.3068
32.30312
32.26625
32.32883
32.19538
32.25742
32.24292
32.188
32.21318
32.28051
32.29893
32.35069
32.37733
32.36907
32.29887
32.30332
32.30422
32.22565
32.24106
32.21685
32.28493
32.33822
32.35881
32.34134
32.30592
32.28521
32.35999
32.38683
32.40033
32.39903
32.38657
32.37059
32.38233
32.39662
32.40655
32.41014
32.40652