/*--------------------------------*- C++ -*----------------------------------*\
| =========                 |                                                 |
| \\      /  F ield         | OpenFOAM: The Open Source CFD Toolbox           |
|  \\    /   O peration     | Version:  5.x                                   |
|   \\  /    A nd           | Web:      www.OpenFOAM.org                      |
|    \\/     M anipulation  |                                                 |
\*---------------------------------------------------------------------------*/
FoamFile
{
    version     2.0;
    format      ascii;
    class       volScalarField;
    location    "31/tissue";
    object      T;
}
// * * * * * * * * * * * * * * * * * * * * * * * * * * * * * * * * * * * * * //

dimensions      [0 0 0 1 0 0 0];

internalField   nonuniform List<scalar> 
87936
(
32.73513
33.13796
33.15743
33.03886
32.73742
33.1215
33.14117
33.02512
32.76644
33.08972
33.10843
33.0057
32.81629
33.04805
33.06756
32.96768
32.97586
33.02988
32.74075
32.93322
33.00629
32.68002
32.90142
32.99558
32.70101
32.79974
32.99173
32.79427
33.2139
33.68116
34.0711
34.44215
34.5115
34.29345
33.93225
33.30537
32.89378
33.16163
33.64142
34.02808
34.39898
34.47146
34.24665
33.89282
33.28903
32.90548
33.01168
33.54046
33.93151
34.3073
34.38963
34.14107
33.8065
33.24873
32.84566
33.31051
33.82703
34.19509
34.2857
34.01184
33.65371
33.21352
32.78248
33.22803
33.76433
34.07802
34.1674
33.90266
33.57189
33.16326
32.7145
33.13919
33.66497
33.92586
34.02733
33.76365
33.47556
33.09185
32.64658
33.04794
33.52695
33.73597
33.8687
33.60389
33.35454
33.01219
32.58107
32.95653
33.39005
33.54762
33.68247
33.47331
33.21437
32.92293
32.51686
32.87095
33.2376
33.38091
33.47316
33.32953
33.01499
32.79403
32.84622
33.10983
33.29728
33.36406
33.23183
32.85833
32.59905
32.77149
32.9878
33.20905
33.262
33.13276
32.78153
32.46305
32.66473
32.8053
33.10857
33.16058
33.00294
32.77939
32.39274
32.58792
32.69568
32.99707
33.05709
32.84548
32.70734
32.36553
32.3793
32.69048
32.87821
32.94608
32.67809
32.59809
32.33452
32.57787
32.65985
32.74465
32.58433
32.52207
32.60261
32.6669
32.70361
32.64092
32.42107
32.36592
32.4913
32.28357
33.54889
34.42638
35.14675
35.85353
36.07762
36.12439
35.98938
35.45724
34.8205
34.05309
33.12452
33.52949
34.3771
35.07834
35.74005
35.93885
35.9754
35.87369
35.38155
34.76191
34.02879
33.10027
33.48526
34.29772
34.95814
35.57364
35.74517
35.76389
35.68921
35.25204
34.66365
33.97978
33.05976
33.42311
34.20371
34.8359
35.37461
35.53644
35.54289
35.48061
35.09938
34.57061
33.90207
33.00554
33.35012
34.0963
34.70406
35.14751
35.3608
35.39888
35.31896
34.94668
34.45939
33.80867
32.94236
33.27042
33.98454
34.57033
34.9759
35.18746
35.22446
35.15068
34.7925
34.3377
33.70223
32.87154
33.18677
33.86215
34.42889
34.81774
35.04693
35.05967
34.96239
34.63763
34.19213
33.57159
32.78916
33.09916
33.72981
34.28139
34.66604
34.88934
34.92317
34.79976
34.48197
34.0379
33.38517
32.68276
33.03768
33.60245
34.1469
34.52415
34.74972
34.78739
34.6634
34.33967
33.88678
33.24247
32.61301
32.92309
33.49024
34.01513
34.3786
34.62022
34.6626
34.52357
34.20628
33.74661
33.11008
32.55548
32.72678
33.36886
33.86396
34.21506
34.4896
34.54092
34.37333
34.05551
33.61005
32.99998
32.583
33.20195
33.70349
34.06255
34.34973
34.41156
34.21758
33.91368
33.45833
32.90469
32.45419
33.00288
33.51894
33.92373
34.20469
34.27341
34.07015
33.75267
33.2931
32.83157
32.38625
32.84726
33.36402
33.77855
34.06195
34.13135
33.93041
33.58555
33.16381
32.71759
32.70685
33.2121
33.6248
33.92344
33.98845
33.79298
33.40576
32.99302
32.4805
32.73862
33.08647
33.45146
33.74481
33.80046
33.62121
33.26642
32.8574
32.42115
32.36986
32.79694
33.21577
33.43806
33.47762
33.33667
33.03682
32.71248
32.54337
32.83225
33.08714
33.13435
32.99675
32.68506
32.24237
32.16013
32.5532
32.67131
32.72491
32.68876
32.40118
32.31471
32.35656
32.22828
33.05916
34.03048
34.98773
35.94749
36.37099
35.62388
34.44697
33.52765
33.04502
33.97242
34.93814
35.83589
36.16628
35.53788
34.40776
33.5121
33.0234
33.87276
34.84716
35.65316
35.92311
35.40345
34.33348
33.48521
33.76818
34.73794
35.46897
35.73929
35.24914
34.24229
33.33949
33.66734
34.62484
35.33603
35.59163
35.11706
34.14454
33.21708
33.56226
34.51095
35.18003
35.51813
35.38301
34.96376
34.04411
33.10419
33.45469
34.39336
35.05569
35.39363
35.22922
34.78283
33.93926
33.00157
33.35197
34.27594
34.9369
35.28919
35.1037
34.61971
33.83424
32.90566
33.25127
34.15719
34.82627
35.19929
34.99989
34.48621
33.72714
32.80826
33.15208
34.02282
34.72151
35.02678
35.16751
34.88241
34.35952
33.6088
32.70788
33.05675
33.87116
34.58536
34.90865
35.07189
34.77132
34.22726
33.46597
32.61095
32.97686
33.72986
34.40057
34.82592
35.05222
34.95272
34.67776
34.09565
33.31158
32.54188
32.79621
33.59448
34.25638
34.71965
34.94133
35.02123
34.85192
34.56503
33.96548
33.1646
32.63735
33.45528
34.11824
34.62774
34.85679
34.99821
34.91203
34.76519
34.40474
33.82403
33.02892
32.4865
33.30011
33.97734
34.51827
34.79073
34.90152
34.90634
34.86459
34.6757
34.24458
33.66844
32.90088
32.513
33.14186
33.81267
34.30655
34.60231
34.73522
34.73781
34.7089
34.51684
34.06262
33.49605
32.87437
32.84749
33.47996
33.96897
34.38981
34.53444
34.54528
34.49211
34.18573
33.76283
33.14959
32.48686
32.45419
33.08245
33.60914
33.98888
34.17317
34.20084
34.09983
33.83176
33.39467
32.80069
32.71373
33.2081
33.5993
33.78915
33.8206
33.71886
33.42018
32.97399
32.39708
32.25965
32.77156
33.16996
33.36501
33.40954
33.28507
32.94897
32.60477
32.28075
32.68275
32.87984
32.98565
32.81554
32.56474
32.2393
32.481
32.58566
32.3522
34.15911
35.51983
36.40472
35.92668
34.81415
33.50218
34.10121
35.42991
36.19593
35.81189
34.75873
33.47352
34.01905
35.27554
35.96303
35.62387
34.66153
33.42228
33.94248
35.10782
35.72891
35.42375
34.55284
33.34828
33.85024
34.9578
35.60284
35.2832
34.4362
33.25844
33.74411
34.78144
35.45512
35.13331
34.31046
33.16651
33.63388
34.62158
35.32896
35.00946
34.18422
33.07485
33.52085
34.48994
35.22252
34.89729
34.05695
32.98123
33.40115
34.3695
35.13855
34.79975
33.92489
32.87996
33.2864
34.25639
34.97522
35.17395
34.69572
33.80172
32.77893
33.17924
34.14162
34.84228
35.06455
34.58228
33.67845
32.6839
33.06565
34.01492
34.73959
35.00306
34.45904
33.5328
32.58206
32.88965
33.88634
34.63314
34.9154
34.28894
33.3882
32.75251
33.75354
34.53897
34.96204
34.78696
34.15389
33.2559
32.60269
33.60398
34.42164
34.90641
34.67577
34.02247
33.11114
32.55823
33.39435
34.20971
34.7294
34.91467
34.51278
33.84592
33.01198
33.12988
33.89618
34.49221
34.8466
34.67702
34.2595
33.52909
32.68727
32.81865
33.54989
34.2107
34.54249
34.84749
34.71514
34.40236
33.88031
33.15302
32.36686
32.36519
33.13844
33.79449
34.26941
34.52156
34.6702
34.63298
34.63159
34.43341
34.04111
33.49964
32.76348
32.71155
33.37018
33.85392
34.18637
34.39969
34.41629
34.34635
34.03169
33.64654
33.05748
32.32346
32.29263
32.91316
33.44606
33.76561
33.95291
33.99165
33.88533
33.60765
33.22356
32.68931
32.39616
32.93411
33.27579
33.46878
33.53005
33.40641
33.14089
32.72463
32.41651
32.7362
32.90743
33.01516
32.87423
32.64859
32.22382
32.23724
32.38983
32.4545
32.35789
34.0681
35.46443
36.21965
34.71795
33.39112
34.04498
35.3849
36.03864
34.68719
33.36166
33.99085
35.26274
35.83213
34.6264
33.3079
33.91424
35.14425
35.65985
34.54413
33.23781
33.82294
35.02019
35.50793
34.4473
33.15724
33.72205
34.89377
35.35508
34.34133
33.07171
33.60867
34.76906
35.19445
34.22618
32.97939
33.48188
34.64326
35.28662
34.99376
34.09371
32.8633
33.35242
34.45205
35.18391
34.8596
33.94164
32.756
33.2183
34.30732
35.07938
34.74397
33.79705
32.676
33.05821
34.17486
34.99959
34.63622
33.64046
32.93497
34.04932
34.9393
34.53709
33.49989
32.82123
33.94186
34.833
34.43556
33.39223
32.70248
33.83221
34.66839
34.93968
34.33087
33.27521
32.57231
33.68296
34.5643
34.87212
34.16267
33.1365
32.53149
33.46394
34.39792
34.74006
33.98282
33.01709
33.21348
34.15449
34.76283
34.43824
33.71
32.72134
32.75956
33.77659
34.4455
34.73516
34.17045
33.30765
32.42375
33.35378
34.15761
34.63017
34.78281
34.41775
33.7743
32.93725
32.97767
33.72903
34.32154
34.71633
34.52012
34.09681
33.39601
32.52755
32.48044
33.25103
33.91152
34.35284
34.59437
34.70881
34.71409
34.68875
34.48466
34.19336
33.64111
32.9407
32.79836
33.44442
33.93515
34.26372
34.39759
34.41535
34.36555
34.08993
33.71723
33.15042
32.39001
32.28122
32.91659
33.42748
33.75879
33.92428
33.95495
33.87542
33.59969
33.15014
32.65512
32.32511
32.88425
33.21687
33.40707
33.44117
33.33421
33.03617
32.66956
32.28535
32.65785
32.82939
32.87344
32.72471
32.45625
32.29561
32.37451
33.66195
35.32884
36.07868
34.48508
33.63961
35.26433
35.94179
34.45496
33.59396
35.14758
35.75235
34.39188
33.53094
35.01496
35.5582
34.30518
33.45723
34.88775
35.42496
34.20062
33.37636
34.75753
35.26298
34.07391
33.27358
34.55667
35.09007
33.89475
33.19008
34.40823
35.27995
34.91509
33.78234
33.08319
34.28069
35.18711
34.80219
33.67167
32.9694
34.16187
35.09035
34.69026
33.57717
32.8605
34.06341
34.98855
34.57908
33.48938
32.74381
33.96514
34.92799
34.48742
33.38294
32.63691
33.85501
34.83006
34.39373
33.25686
33.70081
34.66328
34.96947
34.27728
33.06494
33.49232
34.54697
34.89005
34.10162
32.89869
33.3996
34.38102
34.77172
33.93244
32.83672
33.13297
34.12398
34.81459
34.48047
33.67258
32.52664
32.73537
33.79021
34.63115
34.23913
33.32233
32.3544
33.40053
34.27169
34.62167
33.87101
32.91914
33.01106
33.89342
34.49788
34.74589
34.24405
33.48924
32.49424
32.52063
33.48351
34.19003
34.70442
34.45278
33.87054
33.06036
33.02146
33.76938
34.32084
34.71234
34.53185
34.1038
33.43956
32.53581
32.42844
33.24959
33.88295
34.3281
34.55611
34.67853
34.69083
34.67738
34.43065
34.1428
33.61939
32.91112
32.70417
33.38963
33.85132
34.17681
34.33178
34.34288
34.29987
33.99213
33.64594
33.06913
32.30879
32.76527
33.28168
33.59137
33.79693
33.83945
33.71268
33.45297
33.03355
32.39345
32.66898
32.9744
33.18715
33.2442
33.06113
32.81903
32.32899
32.31959
32.50819
32.6011
32.43408
33.3697
34.76231
36.3571
35.55331
34.08854
33.34189
34.72504
36.1667
35.47588
34.06586
33.29317
34.65357
35.93556
35.34275
34.014
33.23374
34.56542
35.71206
35.19256
33.94318
33.16387
34.47369
35.58204
35.07778
33.8576
33.07114
34.3801
35.43321
34.95178
33.75344
32.99308
34.28533
35.31034
34.84586
33.63287
34.18435
35.19763
34.73695
33.48463
34.07437
35.11498
34.6394
33.36993
33.93948
35.02086
34.52428
33.25535
33.75882
34.90662
34.40932
33.12672
33.64167
34.76926
34.26787
33.01974
33.51958
34.61283
34.99983
34.11522
32.89152
33.40395
34.50984
34.91484
33.99755
32.74468
33.28446
34.42748
34.86295
33.89653
32.61499
33.12238
34.25528
34.71859
33.75306
32.82419
33.96399
34.7648
34.40801
33.44473
32.45317
33.67701
34.61252
34.18442
33.11213
33.30543
34.24035
34.63004
33.81762
32.69386
32.82256
33.84661
34.62132
34.24857
33.40059
32.3866
33.41552
34.26957
34.62143
33.95405
32.98084
32.98155
33.85896
34.55594
34.21495
33.47254
32.46322
32.39207
33.36038
34.10578
34.64331
34.35899
33.76888
32.95863
32.86242
33.62563
34.18358
34.60055
34.6763
34.39186
33.90811
33.25504
32.37727
32.25272
33.06671
33.67081
34.16187
34.38562
34.52036
34.58074
34.47193
34.25546
33.90977
33.40538
32.68069
32.37314
33.07409
33.57465
33.88004
34.04131
34.06908
33.9852
33.75185
33.36103
32.77347
32.34727
32.9407
33.25893
33.42859
33.46909
33.36628
33.08812
32.6675
32.26184
32.56583
32.7545
32.81585
32.68909
32.43639
33.35361
34.43284
36.08323
35.30131
33.7493
33.33052
34.40008
35.9408
35.2344
33.72849
33.28328
34.32758
35.74144
35.10826
33.67851
33.21025
34.2125
35.54819
34.97155
33.60045
33.11041
34.09331
35.38899
34.83303
33.47087
33.02212
33.9785
35.21937
34.63839
33.36301
32.94358
33.87297
35.08995
34.48652
33.22987
33.77416
34.96282
34.37067
33.08707
33.66502
34.84787
34.26234
32.97156
33.54565
34.69337
35.13758
34.15551
32.86523
33.42981
34.58828
35.03936
34.05044
32.77033
33.30989
34.48882
34.95309
33.93137
32.68784
33.1325
34.38445
34.86853
33.75727
32.9871
34.27759
34.7802
33.63109
32.82548
34.1344
34.6639
33.49675
32.76313
33.95815
34.87791
34.45868
33.39932
33.65155
34.68107
34.20424
33.04709
33.36009
34.37307
34.76548
33.90357
32.69692
32.94308
34.09212
34.53859
33.55821
32.53498
33.74035
34.56728
34.17015
33.21483
33.33385
34.19771
34.60573
33.80655
32.72034
32.78848
33.80251
34.57723
34.19765
33.36217
32.29574
33.34842
34.16097
34.5274
33.7858
32.87885
32.84606
33.71725
34.33357
34.62559
34.06714
33.30051
32.29049
33.16162
33.85848
34.38272
34.64191
34.16205
33.55577
32.647
32.47846
33.28192
33.89191
34.33308
34.58725
34.68571
34.68424
34.65179
34.48242
34.15044
33.63582
32.95471
32.66516
33.34562
33.78833
34.05792
34.25832
34.2746
34.20573
33.94229
33.55766
33.03153
32.26574
32.66106
33.08204
33.45763
33.63875
33.66277
33.57153
33.32215
32.90123
32.28745
32.32801
32.69026
32.89767
32.91278
32.84686
32.58236
33.41628
34.27718
35.40915
36.27991
34.71952
33.81962
33.39636
34.25233
35.34319
36.10294
34.68481
33.80205
33.35609
34.19994
35.22631
35.88161
34.61543
33.75943
33.29947
34.12948
35.09581
35.6718
34.52829
33.69849
33.22994
34.04789
34.96917
35.51717
34.43486
33.62471
33.1503
33.95461
34.86321
35.39325
34.33058
33.54091
33.06364
33.84892
34.74647
35.2849
34.21295
33.45088
32.97252
33.71683
34.62538
35.14608
34.09565
33.35025
32.88228
33.57403
34.48362
35.00697
33.97087
33.22643
33.44954
34.34339
34.89076
33.84547
33.08657
33.3336
34.2217
34.789
33.72076
32.96673
33.22019
34.10264
34.67859
33.59126
32.84943
33.09114
33.99305
34.99451
34.54465
33.42246
32.73462
32.94493
33.88536
34.89533
34.44189
33.29784
32.63336
32.77551
33.75546
34.82912
34.34723
33.15267
32.72372
33.58106
34.64144
34.16128
33.0369
33.32301
34.3601
34.80762
33.85911
32.69415
32.91492
34.12476
34.61312
33.54431
32.51078
33.7942
34.69932
34.26214
33.22501
33.43834
34.4381
33.97161
32.77528
32.95632
34.05923
34.50343
33.5538
32.4806
33.68248
34.52727
34.11404
33.15958
33.21015
34.10936
34.50626
33.69053
32.5924
32.61258
33.6612
34.36138
34.65708
34.03784
33.19671
33.14833
33.95613
34.58561
34.25756
33.56897
32.57445
32.43213
33.36472
34.06098
34.60969
34.32839
33.73804
32.97915
32.76643
33.50694
34.09287
34.47957
34.68545
34.61444
34.3091
33.80868
33.16798
32.2649
32.86074
33.48061
33.90356
34.22658
34.34054
34.3425
34.34041
34.12421
33.74521
33.17393
32.42711
32.72939
33.18997
33.55766
33.69833
33.70673
33.66018
33.42869
33.03573
32.38169
32.48394
32.82489
32.9521
32.97198
32.91083
32.63096
32.27814
33.50291
34.32805
35.23434
36.29096
35.78461
34.77374
33.85633
33.15132
33.47191
34.30507
35.17923
36.11605
35.68532
34.73967
33.84338
33.15149
33.41697
34.25482
35.08138
35.89778
35.53064
34.67242
33.80688
33.34933
34.18534
34.97026
35.69012
35.36938
34.58748
33.74907
33.27285
34.10344
34.86246
35.57337
35.25777
34.4949
33.67392
33.18945
34.01281
34.75276
35.44437
35.1329
34.39672
33.58872
33.10138
33.91489
34.63937
35.33392
35.0208
34.29296
33.49675
33.00985
33.80799
34.51725
35.20583
34.90351
34.17959
33.39985
32.9165
33.68409
34.39073
35.10462
34.79979
34.05049
33.29921
32.82265
33.51264
34.27161
34.98106
34.67312
33.91663
33.18156
33.40123
34.14727
34.85782
34.47601
33.79765
33.03173
33.28767
34.03326
34.77833
34.35118
33.68284
32.91485
33.17503
33.92075
34.68756
34.23873
33.56577
32.79794
33.05561
33.79377
34.56137
34.99643
34.12609
33.41986
32.6825
32.88672
33.67404
34.46458
34.91816
34.01648
33.25873
32.58281
32.82719
33.52766
34.29228
34.76762
33.85077
33.18114
33.21831
34.02617
34.51422
33.56242
32.8425
32.80539
33.73141
34.71032
34.23186
33.19354
33.40216
34.46678
33.98147
32.71363
32.94378
34.08299
34.58859
33.58661
32.48923
33.75757
34.66749
34.21352
33.22044
33.36155
34.30891
34.67511
33.89813
32.67883
32.78514
33.93161
34.6694
34.30632
33.41035
33.41667
34.28799
34.62527
33.92577
32.84188
32.83321
33.8931
34.59163
34.22564
33.39432
33.31655
34.08376
34.64077
34.38557
33.71318
32.76067
32.63828
33.59917
34.19609
34.64755
34.45352
33.9469
33.16577
32.94171
33.6535
34.17478
34.55824
34.67515
34.37444
33.96441
33.31868
32.40139
32.9647
33.54224
33.976
34.27703
34.38103
34.37379
34.33429
34.1714
33.79298
33.27504
32.51355
32.79731
33.35046
33.62342
33.7648
33.79964
33.70257
33.48141
33.07405
32.43815
32.53798
32.85339
32.99007
33.01659
32.93783
32.65203
32.27004
33.57263
34.43282
35.30309
36.32609
35.81491
34.84981
34.01015
33.17256
33.55736
34.39032
35.24169
36.14489
35.71487
34.80571
33.97375
33.16138
33.4821
34.31928
35.13508
35.92248
35.55661
34.72703
33.87163
33.15368
33.4031
34.23597
35.01584
35.70793
35.39053
34.63266
33.80228
33.30506
34.14268
34.90142
35.58971
35.2748
34.53222
33.71192
33.2099
34.04578
34.78901
35.45643
35.14817
34.42991
33.61759
33.11797
33.94681
34.67648
35.32277
35.02995
34.32654
33.5222
33.02598
33.84453
34.56044
35.15117
35.34815
34.89511
34.22031
33.42504
32.93342
33.73607
34.43744
35.00957
35.26865
34.74803
34.10677
33.32609
32.8416
33.61099
34.30096
34.90939
35.18355
34.61319
33.97442
33.22463
32.74117
33.44259
34.18375
34.82213
35.08152
34.50573
33.84304
33.09007
33.3325
34.07716
34.72684
35.00539
34.40203
33.7288
32.95911
33.21134
33.96707
34.62308
34.89953
34.29293
33.60999
32.82967
33.08622
33.8428
34.47512
34.80399
34.16726
33.4761
32.70357
32.92528
33.70339
34.36072
34.95874
34.71811
34.04484
33.28394
32.58164
32.85732
33.56615
34.21366
34.81622
34.55143
33.90396
33.21387
32.55482
33.25487
33.94161
34.61123
34.299
33.62071
32.88955
32.88235
33.60861
34.3329
34.77859
33.91701
33.23723
32.50635
32.48629
33.21302
34.05835
34.52841
33.57037
32.86332
32.80094
33.70362
34.69591
34.22337
33.17217
32.45204
33.34708
34.36238
33.91125
32.66421
32.82589
33.99672
34.46648
33.47145
33.53774
34.53927
34.03971
32.9316
33.09859
34.05917
34.50503
33.64997
32.3835
32.43994
33.64503
34.45724
34.04912
33.16076
33.11088
33.9782
34.64556
34.3245
33.60393
32.43869
32.34546
33.42148
34.20155
34.56657
33.88927
33.0025
32.71625
33.65794
34.25221
34.57221
33.98027
33.27822
32.99343
33.6845
34.1937
34.63144
34.39522
33.98308
33.36044
32.47414
32.98497
33.55995
34.07865
34.30344
34.42313
34.49527
34.34932
34.20254
33.81814
33.29636
32.53038
32.79638
33.33742
33.61718
33.75722
33.78118
33.69875
33.4757
33.07257
32.43617
32.37485
32.78079
32.94811
32.9627
32.90178
32.6071
33.50304
34.43296
35.35134
36.35271
35.85506
34.8847
33.95504
33.47209
34.39047
35.28592
36.17048
35.74915
34.83687
33.88849
33.41735
34.31948
35.17295
35.9577
35.59932
34.74951
33.84388
33.34992
34.23651
35.04722
35.74824
35.43375
34.65012
33.77502
33.27356
34.14372
34.92616
35.60869
35.30281
34.54512
33.69572
33.19025
34.04681
34.81031
35.47422
35.17128
34.4406
33.60734
33.10209
33.94762
34.69922
35.34583
35.05361
34.33757
33.51413
33.01063
33.84538
34.5881
35.22014
34.93348
34.23347
33.41705
32.91722
33.73714
34.47366
35.09115
35.27596
34.81594
34.12442
33.31729
32.82328
33.61198
34.34403
34.93685
35.183
34.66926
33.99794
33.21268
33.4434
34.21032
34.84097
35.11128
34.53943
33.85795
33.06503
33.33321
34.10028
34.75879
35.03562
34.43418
33.74321
32.94089
33.2118
33.98898
34.65698
34.93818
34.32489
33.62235
32.81746
33.08654
33.86617
34.54724
35.01195
34.79412
34.20845
33.48728
32.696
32.9254
33.72404
34.39331
34.95763
34.70064
34.07391
33.29326
32.58004
32.85763
33.59487
34.23426
34.82426
34.53858
33.93163
33.22456
32.55528
33.25881
33.95277
34.51494
34.80588
34.24695
33.6343
32.90924
32.9007
33.62052
34.22347
34.80583
34.53213
33.93561
33.25077
32.51399
32.49692
33.23708
33.91684
34.57269
34.26281
33.60499
32.89109
32.85305
33.55261
34.26606
34.74907
33.86127
33.20264
32.46884
32.42751
33.15523
33.98423
34.46665
33.50726
32.78284
32.6545
33.56959
34.54417
34.07334
33.04645
33.1239
34.12774
34.6109
33.64894
32.46125
32.51352
33.74309
34.62288
34.19651
33.22425
33.30333
34.17929
34.6167
33.82255
32.56243
32.59792
33.73126
34.56923
34.15508
33.28993
33.21721
34.03601
34.46195
33.67263
32.5545
32.41305
33.50813
34.22014
34.581
33.92434
33.09028
32.85067
33.67996
34.25101
34.5584
33.99375
33.32128
32.28489
33.00204
33.68924
34.18533
34.63286
34.40241
33.99282
33.36495
32.49247
32.97323
33.54358
33.95113
34.27426
34.3577
34.35943
34.32919
34.1592
33.79158
33.28197
32.52251
32.74099
33.18217
33.53738
33.69848
33.70879
33.64561
33.42686
33.0431
32.39543
32.32899
32.67711
32.90619
32.92819
32.80756
32.57039
33.4163
34.3281
35.30319
36.35277
35.83782
34.80729
33.83859
33.39638
34.30511
35.24175
36.17061
35.73183
34.76988
33.82325
33.35611
34.25485
35.13505
35.95801
35.57483
34.69927
33.78336
33.2995
34.18533
35.01572
35.74871
35.41331
34.61078
33.72427
33.22997
34.10339
34.90138
35.60922
35.29146
34.51489
33.65127
33.15031
34.01272
34.7893
35.47479
35.16236
34.41464
33.5684
33.0637
33.91489
34.67698
35.34639
35.04458
34.31062
33.47801
32.97258
33.8081
34.56083
35.22061
34.91947
34.20022
33.38191
32.88234
33.68423
34.43762
35.09156
34.80492
34.07784
33.27793
33.51282
34.30099
34.9373
35.17797
34.64063
33.93976
33.134
33.40142
34.18385
34.84145
35.10805
34.52385
33.821
33.00776
33.28785
34.07733
34.75922
35.03398
34.41929
33.70809
32.88732
33.17524
33.96737
34.6575
34.93776
34.31082
33.59191
32.77549
33.05584
33.84319
34.54832
35.01498
34.80341
34.19258
33.45958
32.66312
32.88702
33.70389
34.39586
34.95333
34.70769
34.06104
33.27064
32.82751
33.56652
34.23799
34.81118
34.5443
33.91829
33.2017
33.25525
33.95276
34.53346
34.8069
34.25422
33.62914
32.87115
32.8826
33.62039
34.24278
34.77217
34.52407
33.94287
33.2449
32.50595
32.48652
33.23776
33.94702
34.49774
34.78362
34.27153
33.61732
32.88178
32.85347
33.5762
34.16503
34.75217
34.47202
33.88486
33.2133
32.46101
32.42773
33.16428
33.83241
34.48323
34.1749
33.51795
32.80265
32.71946
33.45115
34.13999
34.66135
33.76018
33.10456
32.93092
33.7491
34.65387
34.20886
33.26665
32.51671
33.3385
34.32103
33.86868
32.6252
32.66686
33.87522
34.32952
33.38645
33.39133
34.31823
33.87253
32.70822
32.71
33.82933
34.60267
34.18822
33.36557
33.26114
34.10121
34.50797
33.70479
32.64841
32.43578
33.58397
34.2346
34.56162
33.94831
33.11407
32.77532
33.67528
34.26696
34.58041
33.99112
33.3107
32.96946
33.67522
34.17612
34.5355
34.6558
34.3686
33.97712
33.34684
32.43136
32.91279
33.5025
33.89499
34.21625
34.3532
34.3343
34.30698
34.11444
33.73085
33.21654
32.46808
32.64932
33.10311
33.46415
33.65081
33.67387
33.5576
33.32745
32.89529
32.34576
32.54515
32.78552
32.80855
32.68869
32.39721
33.3536
34.27718
35.23435
36.32612
35.79181
34.74214
33.79686
33.33051
34.25232
35.17924
36.14492
35.69288
34.70787
33.77757
33.28327
34.19993
35.08138
35.92253
35.53838
34.64065
33.73137
33.21024
34.12942
34.97025
35.70799
35.37646
34.55651
33.66548
33.11041
34.0478
34.86249
35.58981
35.26273
34.46548
33.58548
33.02209
33.95448
34.75277
35.45658
35.13338
34.36784
33.49137
32.94354
33.84883
34.63925
35.32294
35.00072
34.2632
33.38255
33.71678
34.51714
35.15129
34.8599
34.14617
33.27757
33.57401
34.39067
35.00966
35.26117
34.71272
34.01898
33.13442
33.44956
34.27161
34.90947
35.18265
34.59295
33.89566
33.0154
33.33364
34.14732
34.82222
35.10554
34.48761
33.77023
32.89803
33.22025
34.03336
34.727
35.0147
34.38357
33.65129
32.77115
33.09122
33.92088
34.6233
34.88966
34.27674
33.52605
32.66284
32.94503
33.79391
34.47543
35.0125
34.76486
34.15829
33.35178
32.7756
33.67417
34.36102
34.95899
34.68902
34.04741
33.21834
32.7238
33.52775
34.21359
34.82647
34.53209
33.89063
33.1314
33.21834
33.94146
34.5151
34.78958
34.23637
33.59588
32.78957
32.80545
33.60858
34.22338
34.77231
34.49976
33.9389
33.22664
33.21304
33.91675
34.49802
34.79548
34.20722
33.59435
32.81494
32.80096
33.55248
34.16541
34.72
34.44331
33.88047
33.19174
33.15527
33.83236
34.3881
34.67716
34.11328
33.5164
32.75317
32.65468
33.45173
34.02961
34.65496
34.33776
33.76545
33.09823
32.9308
33.60266
34.24548
34.70386
33.8906
33.2761
32.49505
33.13736
33.92071
34.38425
33.47936
32.71317
32.47554
33.4711
34.40415
33.93622
32.8962
32.82264
33.97113
34.41958
33.47438
33.46045
34.36205
33.95136
32.7937
32.75356
33.85097
34.59042
34.21477
33.42298
33.23644
34.08351
34.53451
33.70298
32.60559
32.35715
33.51503
34.22736
34.5682
33.93004
33.10049
32.67963
33.63584
34.24175
34.64932
34.51974
33.97652
33.23132
32.8206
33.61974
34.11243
34.46753
34.68013
34.60415
34.28813
33.86673
33.26418
32.2752
32.70913
33.34582
33.81021
34.05872
34.28129
34.28584
34.22869
33.95044
33.61323
33.1012
32.27863
32.37192
32.94514
33.24266
33.48559
33.49551
33.42621
33.13992
32.69475
32.34883
32.51147
32.5593
32.45634
33.36969
34.43283
35.40914
36.29096
35.86913
34.89866
33.91983
33.34187
34.40007
35.34318
36.11604
35.76013
34.85506
33.89518
33.29316
34.32756
35.22631
35.89777
35.59712
34.76939
33.8406
33.23372
34.21244
35.09581
35.69012
35.4316
34.65784
33.7633
33.16384
34.09328
34.96915
35.57338
35.31799
34.54486
33.63361
33.07112
33.97848
34.86318
35.44437
35.19097
34.43452
33.523
32.99307
33.87295
34.74644
35.33393
35.07447
34.32088
33.39288
33.77415
34.62536
35.20584
34.94337
34.2133
33.28419
33.66502
34.48362
35.10463
34.80058
34.09747
33.16764
33.54566
34.34341
34.98109
35.17841
34.68707
33.97324
33.04939
33.42984
34.22173
34.85787
35.06958
34.58309
33.84694
32.93245
33.30992
34.10268
34.7784
35.00824
34.47816
33.69695
32.83384
33.13255
33.99311
34.68764
34.93424
34.37991
33.59176
32.73937
32.98716
33.88543
34.56146
34.83989
34.28098
33.46458
32.82555
33.75554
34.46467
34.95887
34.75165
34.12488
33.32436
32.76321
33.58115
34.29236
34.81629
34.59241
33.9554
33.20011
33.32314
34.02626
34.61126
34.84454
34.3319
33.69376
32.85858
32.91515
33.73158
34.33296
34.80584
34.59889
34.07775
33.38324
32.51117
33.40244
34.05841
34.57267
34.7931
34.31675
33.73098
32.94399
32.94406
33.70353
34.26593
34.75214
34.53264
34.02853
33.38859
32.52027
32.48903
33.34684
33.98405
34.48319
34.71196
34.22195
33.66534
32.90629
32.8257
33.56946
34.1399
34.6549
34.41293
33.92229
33.278
33.12386
33.74908
34.24542
34.52508
34.02107
33.46646
32.66711
32.51354
33.33848
33.92068
34.47242
34.14567
33.59145
32.9213
32.6668
33.47113
34.08522
34.56719
33.81158
33.12072
32.82556
33.72066
34.56574
34.10022
33.27055
33.2059
34.09247
34.5604
33.70619
32.48459
33.67139
34.49413
34.04478
33.08885
32.97816
33.92982
34.3911
33.63028
33.39564
34.16883
34.52281
33.84278
32.80699
32.51258
33.65915
34.27424
34.57449
33.94368
33.27892
32.74213
33.68696
34.2706
34.52996
33.97127
33.35643
32.85439
33.57356
34.08061
34.43728
34.65943
34.55367
34.30959
33.8754
33.34662
32.34724
32.61957
33.41547
33.84556
34.10595
34.19898
34.20981
34.20002
33.98556
33.59203
33.08374
32.39095
32.90723
33.28136
33.40172
33.46182
33.38916
33.14992
32.71476
32.39339
32.62302
32.59221
32.55335
33.66194
34.76231
36.08324
35.40708
34.1553
33.19378
33.63961
34.72504
35.94081
35.33599
34.13528
33.1692
33.59396
34.65357
35.74145
35.21257
34.08557
33.12423
33.53094
34.56541
35.54818
35.08398
34.01727
33.06462
33.45723
34.47368
35.38897
35.64487
34.97483
33.93979
32.99673
33.37636
34.3801
35.21936
35.50728
34.85289
33.85844
32.93027
33.27358
34.28533
35.08994
35.38964
34.73643
33.77872
32.87849
33.19009
34.18435
34.96282
35.26228
34.61734
33.69436
33.0832
34.07438
34.84788
35.15479
34.50123
33.59526
32.96941
33.93949
34.69339
35.03801
34.35276
33.4845
32.86052
33.75884
34.58831
34.96424
34.19991
33.35336
32.74383
33.6417
34.48886
34.85962
34.08585
33.19245
32.63694
33.51961
34.38449
34.99457
34.72176
33.97838
33.05985
33.40399
34.27764
34.89539
34.60954
33.86388
32.91548
33.28452
34.13447
34.8292
34.48167
33.71944
32.77324
33.12245
33.95825
34.64155
34.915
34.31183
33.56741
32.70942
32.82432
33.65171
34.3603
34.70625
34.07541
33.29238
32.45334
33.36036
34.1252
34.71078
34.44468
33.75461
32.8864
32.94348
33.79517
34.469
34.73682
34.12116
33.4332
32.50695
32.53527
33.43899
34.10243
34.69285
34.42955
33.78917
32.97269
32.95565
33.75679
34.36036
34.64912
34.06007
33.41835
32.52457
32.48026
33.36119
33.99634
34.54396
34.24766
33.69691
32.90736
32.78506
33.53774
34.12787
34.65395
34.43424
33.90406
33.23887
32.38209
33.09875
33.74351
34.32126
34.58042
34.02467
33.43527
32.64816
32.43994
33.30321
33.87481
34.40375
34.65613
34.10461
33.58292
32.8629
32.59758
33.39088
33.97074
34.56554
34.24743
33.69031
32.99988
32.70975
33.46026
34.09233
34.58476
33.81144
33.16179
32.75344
33.67132
34.53314
34.05902
33.19604
32.36778
32.97813
33.99914
34.48705
33.63348
33.56142
34.33924
33.9128
32.82011
32.61092
33.71341
34.55798
34.13459
33.31409
33.09038
33.9207
34.58645
34.30377
33.61473
32.3894
33.2475
33.95338
34.58111
34.32718
33.65317
32.67888
32.19812
33.30257
33.92285
34.42138
34.62076
34.16872
33.67197
32.75926
32.27149
33.11708
33.6877
34.0823
34.41034
34.49062
34.50883
34.47616
34.2368
33.9207
33.42332
32.7627
32.84549
33.32715
33.67844
33.81217
33.83818
33.77965
33.54651
33.14093
32.44873
32.30847
32.84818
33.18371
33.3863
33.43144
33.33928
33.05929
32.61341
32.33794
32.72454
32.9271
32.95717
32.8366
32.54945
32.24044
32.47565
32.46774
32.40028
34.0681
35.32884
36.3571
35.86899
34.69568
33.50405
34.04498
35.26434
36.1667
35.75743
34.66041
33.46589
33.99086
35.14758
35.93556
35.59471
34.59052
33.39888
33.91424
35.01496
35.71207
35.40869
34.49742
33.32223
33.82294
34.88775
35.58204
35.27367
34.39025
33.23739
33.72206
34.75753
35.43321
35.08611
34.27457
33.14934
33.60867
34.55667
35.31035
34.9419
34.13376
33.05751
33.48189
34.40824
35.19764
34.82421
33.98328
32.95812
33.35243
34.2807
35.11499
34.72059
33.83112
32.8523
33.21831
34.16189
35.02087
34.61533
33.65694
32.75259
33.05822
34.06342
34.90663
34.5231
33.55398
32.64368
32.93498
33.96516
34.76928
35.02622
34.41407
33.45584
32.82125
33.85503
34.61286
34.92763
34.30262
33.35265
32.7025
33.70084
34.50988
34.84868
34.12688
33.22427
32.57234
33.49236
34.42753
34.79975
33.99286
33.06628
32.53151
33.39964
34.25533
34.87798
34.61851
33.85883
32.89689
33.13302
33.96406
34.68117
34.32636
33.53526
32.65805
32.73543
33.6771
34.3732
34.70669
34.07598
33.24407
32.35446
33.30552
34.09225
34.69955
34.44137
33.71529
32.78305
32.82261
33.7404
34.4382
34.70073
34.07809
33.34304
32.3898
32.38661
33.33384
34.0592
34.66762
34.40168
33.72677
32.82488
32.78847
33.68247
34.30895
34.64664
34.01935
33.29862
32.3575
32.29574
33.21016
33.93165
34.53935
34.18083