/*--------------------------------*- C++ -*----------------------------------*\
| =========                 |                                                 |
| \\      /  F ield         | OpenFOAM: The Open Source CFD Toolbox           |
|  \\    /   O peration     | Version:  5.x                                   |
|   \\  /    A nd           | Web:      www.OpenFOAM.org                      |
|    \\/     M anipulation  |                                                 |
\*---------------------------------------------------------------------------*/
FoamFile
{
    version     2.0;
    format      ascii;
    class       volScalarField;
    location    "35/muscle";
    object      T;
}
// * * * * * * * * * * * * * * * * * * * * * * * * * * * * * * * * * * * * * //

dimensions      [0 0 0 1 0 0 0];

internalField   nonuniform List<scalar> 
45560
(
37.00303
37.00307
37.00339
37.01287
37.01304
37.0133
37.02052
37.02077
37.02725
37.0029
37.00281
37.00284
37.00285
37.00286
37.00285
37.00337
37.01354
37.01293
37.01316
37.01322
37.01325
37.01328
37.02102
37.02166
37.02212
37.02231
37.02244
37.0219
37.02807
37.02928
37.02994
37.03032
37.03026
37.0303
37.03576
37.03597
37.0369
37.03726
37.03765
37.03833
37.04471
37.04477
37.04522
37.04524
37.04546
37.05345
37.05499
37.05444
37.00276
37.00295
37.00292
37.00296
37.00298
37.00299
37.00301
37.00297
37.00336
37.0127
37.01332
37.01352
37.01379
37.0139
37.01394
37.01386
37.01372
37.01403
37.02122
37.02214
37.02287
37.02335
37.02359
37.02363
37.02337
37.02328
37.02203
37.02926
37.02998
37.03109
37.03173
37.03211
37.03215
37.03193
37.03085
37.0352
37.03716
37.03839
37.03912
37.03959
37.03975
37.03974
37.03821
37.0427
37.0442
37.04619
37.04712
37.04774
37.0479
37.04749
37.04688
37.05284
37.05494
37.05659
37.05761
37.05752
37.05665
37.0615
37.06312
37.06385
37.06557
37.06548
37.00287
37.0029
37.00301
37.00304
37.00308
37.00311
37.00312
37.00313
37.00311
37.00303
37.01304
37.01345
37.01386
37.01413
37.01437
37.01451
37.01456
37.01452
37.01442
37.01451
37.0212
37.02261
37.0233
37.02391
37.02438
37.02465
37.02471
37.02456
37.02431
37.02334
37.02845
37.03026
37.03153
37.03255
37.03323
37.03362
37.03371
37.03347
37.03279
37.03178
37.03481
37.03709
37.03889
37.04019
37.04105
37.04156
37.0417
37.04144
37.04051
37.03905
37.04471
37.04665
37.0483
37.04942
37.05009
37.05028
37.04991
37.0491
37.04744
37.05277
37.05574
37.05803
37.05964
37.06058
37.06083
37.06026
37.05902
37.05695
37.06238
37.0654
37.06714
37.0682
37.06903
37.06833
37.06639
37.07023
37.07187
37.07399
37.07443
37.07428
37.00315
37.00284
37.003
37.00309
37.00314
37.00318
37.00322
37.00323
37.00323
37.00321
37.00314
37.00298
37.01301
37.0131
37.01391
37.01434
37.01465
37.01489
37.01505
37.01511
37.01508
37.01495
37.01459
37.01391
37.01997
37.02201
37.02335
37.02421
37.02484
37.02532
37.0256
37.02569
37.02558
37.02526
37.0245
37.02336
37.02981
37.03155
37.03287
37.03387
37.03458
37.035
37.03512
37.03491
37.03433
37.03329
37.03184
37.03698
37.03887
37.04056
37.04188
37.0428
37.04335
37.04352
37.04326
37.04249
37.04133
37.0392
37.04406
37.04664
37.04877
37.05043
37.05162
37.05234
37.05257
37.05226
37.05137
37.0498
37.0482
37.05235
37.05572
37.05867
37.06093
37.06256
37.06355
37.0639
37.06349
37.0623
37.05989
37.06275
37.06596
37.06883
37.07084
37.07211
37.0727
37.07221
37.0709
37.06858
37.06708
37.07118
37.07429
37.07674
37.07848
37.07917
37.07857
37.07752
37.07772
37.08066
37.08285
37.08381
37.08246
37.00331
37.0028
37.00295
37.00308
37.00317
37.00323
37.00328
37.00331
37.00333
37.00332
37.0033
37.00323
37.00313
37.00311
37.01323
37.0132
37.01367
37.01431
37.01477
37.01511
37.01537
37.01553
37.0156
37.01557
37.01542
37.01509
37.01459
37.0141
37.02004
37.02128
37.02305
37.02416
37.02503
37.02569
37.02618
37.02648
37.0266
37.02651
37.02619
37.02556
37.0247
37.02307
37.02871
37.03113
37.0328
37.0341
37.0351
37.03583
37.03628
37.03644
37.03628
37.03576
37.03483
37.03328
37.03057
37.03549
37.03843
37.04048
37.04216
37.04348
37.04444
37.04504
37.04525
37.04504
37.04436
37.04323
37.04134
37.03854
37.04403
37.04607
37.04864
37.05079
37.05248
37.05372
37.05449
37.05478
37.05453
37.05371
37.05227
37.05025
37.05509
37.05853
37.06142
37.06369
37.06537
37.06644
37.06687
37.06658
37.06554
37.0636
37.0609
37.06146
37.0659
37.06941
37.07225
37.07441
37.07581
37.07642
37.07612
37.07498
37.0727
37.0693
37.07072
37.07511
37.07847
37.08118
37.083
37.08377
37.08346
37.08213
37.07919
37.07349
37.07899
37.0826
37.08604
37.08834
37.08927
37.08889
37.08722
37.08575
37.08961
37.09227
37.09342
37.09244
37.00333
37.00279
37.00289
37.00304
37.00316
37.00324
37.00331
37.00337
37.0034
37.00342
37.00342
37.00339
37.00334
37.00325
37.00311
37.00317
37.01327
37.01275
37.0134
37.01414
37.01472
37.01517
37.01554
37.01581
37.01599
37.01607
37.01604
37.0159
37.01561
37.01516
37.01442
37.0143
37.02035
37.02126
37.02244
37.02387
37.02494
37.0258
37.02648
37.02698
37.02731
37.02745
37.02739
37.02709
37.02654
37.02566
37.02445
37.02333
37.02688
37.02862
37.03026
37.03237
37.03397
37.03525
37.03626
37.03701
37.03749
37.03769
37.03757
37.03712
37.03628
37.03493
37.03308
37.03191
37.03514
37.03736
37.03996
37.042
37.04367
37.045
37.04599
37.04663
37.04689
37.04674
37.04615
37.04508
37.04344
37.04107
37.03934
37.04299
37.04502
37.048
37.05057
37.05272
37.05443
37.05572
37.05655
37.0569
37.05673
37.05599
37.05465
37.05271
37.05027
37.04912
37.0536
37.05765
37.0611
37.064
37.06632
37.06807
37.06923
37.06974
37.06956
37.06861
37.06683
37.06416
37.06078
37.06067
37.06468
37.06899
37.07263
37.07557
37.07784
37.07936
37.08007
37.07989
37.07879
37.07665
37.07353
37.06952
37.0743
37.07893
37.08254
37.08538
37.08734
37.08826
37.08812
37.08675
37.08415
37.08174
37.07762
37.08319
37.08752
37.09102
37.09348
37.09466
37.09459
37.0929
37.0907
37.08603
37.09063
37.0949
37.0979
37.09961
37.09952
37.09901
37.09233
37.09911
37.10292
37.10517
37.00333
37.0028
37.00284
37.00296
37.00311
37.00323
37.00332
37.00339
37.00345
37.00349
37.00351
37.0035
37.00348
37.00343
37.00334
37.0032
37.00313
37.00321
37.01327
37.01275
37.01312
37.01375
37.01452
37.0151
37.01556
37.01594
37.01623
37.01642
37.01651
37.0165
37.01636
37.01609
37.01564
37.01495
37.01452
37.01449
37.02035
37.02122
37.02219
37.02324
37.0246
37.02566
37.02653
37.02722
37.02775
37.0281
37.02827
37.02823
37.02796
37.02745
37.02661
37.02548
37.02464
37.02369
37.02688
37.02905
37.03018
37.03153
37.03349
37.03505
37.03633
37.03735
37.03812
37.03864
37.03888
37.03881
37.03841
37.03764
37.03642
37.03486
37.03396
37.03234
37.03527
37.03703
37.03888
37.04138
37.04341
37.04508
37.04644
37.04746
37.04814
37.04846
37.04837
37.04785
37.04685
37.04529
37.04327
37.04187
37.04009
37.043
37.04465
37.04674
37.04979
37.05237
37.05453
37.05628
37.05762
37.05851
37.05893
37.05884
37.05818
37.05692
37.05501
37.05272
37.05137
37.05002
37.053
37.05604
37.06004
37.06351
37.06644
37.06883
37.07066
37.0719
37.07251
37.07243
37.07158
37.06991
37.06739
37.06424
37.06221
37.06061
37.06287
37.06766
37.07201
37.07572
37.07877
37.08114
37.08278
37.08362
37.08357
37.08257
37.08055
37.07744
37.07465
37.06765
37.07299
37.07816
37.08272
37.08647
37.08944
37.09155
37.09264
37.09268
37.09154
37.08923
37.08562
37.0762
37.08232
37.08775
37.09225
37.0959
37.09853
37.09997
37.10014
37.09894
37.09633
37.08512
37.09107
37.09635
37.10079
37.10407
37.10591
37.10626
37.10495
37.10214
37.09407
37.09882
37.10438
37.10875
37.11073
37.11118
37.00331
37.00279
37.00284
37.00292
37.00303
37.00318
37.0033
37.00339
37.00347
37.00353
37.00357
37.00359
37.00359
37.00357
37.00351
37.00343
37.0033
37.00323
37.00317
37.00323
37.01323
37.01275
37.01312
37.01357
37.01412
37.01487
37.01545
37.01593
37.01633
37.01663
37.01684
37.01694
37.01694
37.01681
37.01655
37.01611
37.0155
37.0151
37.01472
37.01462
37.02004
37.02126
37.02219
37.023
37.02395
37.02527
37.02633
37.02721
37.02792
37.02848
37.02885
37.02905
37.02903
37.0288
37.02831
37.02751
37.02648
37.0258
37.02501
37.02396
37.02862
37.03018
37.03131
37.03261
37.0345
37.03605
37.03733
37.03838
37.03918
37.03974
37.04002
37.03999
37.03964
37.03893
37.03778
37.03634
37.03543
37.03428
37.03245
37.03514
37.03703
37.03853
37.04025
37.04269
37.04472
37.04641
37.04779
37.04886
37.04959
37.04996
37.04994
37.04948
37.04854
37.04705
37.0452
37.04398
37.04247
37.04045
37.04299
37.04465
37.04634
37.0484
37.05145
37.05406
37.05625
37.05804
37.05943
37.06039
37.06089
37.06087
37.06029
37.05909
37.05723
37.05502
37.05367
37.05218
37.053
37.0555
37.05823
37.06227
37.06579
37.06877
37.07122
37.07314
37.07448
37.07519
37.07521
37.07445
37.07287
37.07042
37.06753
37.0656
37.06323
37.06061
37.06234
37.06541
37.07045
37.07489
37.07868
37.08183
37.08432
37.08609
37.08706
37.08715
37.08626
37.08432
37.08128
37.07796
37.0764
37.06673
37.07025
37.07625
37.08169
37.08634
37.09024
37.09337
37.09564
37.09692
37.09712
37.09614
37.09388
37.09015
37.08688
37.07975
37.08647
37.09206
37.09677
37.10063
37.10348
37.10513
37.1055
37.10448
37.10178
37.09707
37.08166
37.0892
37.09602
37.10164
37.1064
37.10994
37.11204
37.11258
37.11148
37.1081
37.09181
37.09874
37.10499
37.11094
37.11529
37.11795
37.11854
37.11797
37.10748
37.11438
37.11973
37.12311
37.00315
37.0028
37.00289
37.00296
37.00303
37.00312
37.00326
37.00338
37.00348
37.00356
37.00363
37.00367
37.0037
37.0037
37.00368
37.00363
37.00355
37.00344
37.00339
37.00333
37.00327
37.00316
37.01301
37.0132
37.0134
37.01375
37.01412
37.0146
37.01531
37.0159
37.0164
37.01681
37.01713
37.01736
37.01748
37.0175
37.01738
37.01713
37.01672
37.01621
37.0159
37.01559
37.01534
37.0146
37.01997
37.02128
37.02244
37.02324
37.02395
37.02481
37.02608
37.02715
37.02806
37.0288
37.02939
37.0298
37.03003
37.03005
37.02985
37.02939
37.02864
37.02773
37.02715
37.02649
37.02564
37.02453
37.02871
37.03026
37.03153
37.03261
37.03386
37.0357
37.03726
37.03857
37.03966
37.04051
37.04111
37.04145
37.04148
37.04118
37.04052
37.03944
37.03812
37.03726
37.03621
37.03484
37.03303
37.03549
37.03736
37.03888
37.04025
37.04187
37.04427
37.04631
37.04805
37.04948
37.0506
37.05141
37.05185
37.0519
37.05152
37.05065
37.04924
37.04753
37.04643
37.04517
37.04358
37.04169
37.04403
37.04502
37.04674
37.04839
37.05042
37.05349
37.05613
37.05837
37.06024
37.06171
37.06276
37.06335
37.06343
37.06295
37.06183
37.06004
37.05791
37.05659
37.05514
37.0538
37.0536
37.05604
37.05823
37.06091
37.06501
37.06859
37.07166
37.07422
37.07625
37.07773
37.07858
37.07873
37.0781
37.07662
37.07424
37.07142
37.06971
37.06773
37.06548
37.06067
37.06287
37.06541
37.06874
37.07389
37.07843
37.08236
37.08567
37.08833
37.09028
37.09144
37.0917
37.09096
37.08914
37.08619
37.08271
37.08066
37.07867
37.06764
37.07025
37.07418
37.0804
37.086
37.09086
37.09498
37.09834
37.10084
37.10237
37.10279
37.10199
37.09983
37.09625
37.09213
37.09026
37.07776
37.08476
37.09156
37.09744
37.10247
37.10663
37.10979
37.11175
37.11239
37.11156
37.10906
37.10477
37.10028
37.08752
37.09532
37.10236
37.10838
37.11351
37.11744
37.11994
37.12085
37.12005
37.11733
37.11335
37.09796
37.10588
37.11292
37.11921
37.12408
37.12719
37.12847
37.12791
37.1258
37.10811
37.11644
37.12403
37.13005
37.13351
37.13601
37.13595
37.13022
37.1382
37.00287
37.00284
37.00295
37.00304
37.00311
37.00318
37.00326
37.0034
37.00352
37.00363
37.00372
37.00379
37.00384
37.00387
37.00388
37.00387
37.00382
37.00375
37.00366
37.00361
37.00356
37.00349
37.00338
37.00325
37.00387
37.01304
37.0131
37.01367
37.01414
37.01452
37.01487
37.01531
37.016
37.01661
37.01713
37.01758
37.01794
37.0182
37.01836
37.01841
37.01833
37.0181
37.01773
37.01728
37.01701
37.01671
37.01635
37.0158
37.01543
37.01565
37.0212
37.02201
37.02305
37.02387
37.0246
37.02527
37.02608
37.02734
37.02844
37.02939
37.03019
37.03084
37.03133
37.03162
37.03171
37.03156
37.03115
37.03047
37.02964
37.02912
37.02853
37.02783
37.02699
37.0259
37.02845
37.02981
37.03113
37.03237
37.03349
37.0345
37.0357
37.03753
37.03913
37.04051
37.04168
37.04263
37.04334
37.04377
37.0439
37.04368
37.0431
37.0421
37.04088
37.0401
37.03918
37.03809
37.03685
37.03552
37.03481
37.03698
37.03843
37.03996
37.04138
37.04269
37.04427
37.04668
37.04878
37.0506
37.05215
37.0534
37.05434
37.05491
37.05509
37.05482
37.05405
37.05275
37.05114
37.05012
37.04894
37.0476
37.04618
37.0442
37.04406
37.04607
37.048
37.04979
37.05145
37.05349
37.0566
37.05933
37.0617
37.06371
37.06535
37.06658
37.06735
37.0676
37.06726
37.06628
37.0646
37.06253
37.06124
37.05976
37.05808
37.05622
37.05454
37.05235
37.05509
37.05765
37.06004
37.06227
37.06501
37.06922
37.07295
37.0762
37.07898
37.08126
37.08299
37.08409
37.08448
37.08406
37.08275
37.0805
37.07772
37.07599
37.07401
37.07181
37.06933
37.06146
37.06468
37.06766
37.07044
37.07389
37.07923
37.08399
37.08819
37.09181
37.09481
37.09711
37.0986
37.09918
37.09871
37.0971
37.09428
37.09081
37.08865
37.08621
37.08334
37.07981
37.06952
37.07299
37.07625
37.0804
37.08692
37.09281
37.09806
37.10261
37.10642
37.10939
37.11136
37.11218
37.11171
37.1098
37.1064
37.10225
37.09968
37.09688
37.09323
37.0762
37.07975
37.08476
37.09256
37.09971
37.10612
37.11173
37.11648
37.12023
37.12278
37.12395
37.12352
37.12131
37.11725
37.11238
37.10925
37.10635
37.08166
37.08752
37.09647
37.10492
37.11267
37.11945
37.12529
37.12999
37.13326
37.13488
37.13457
37.13206
37.1273
37.12194
37.09879
37.10867
37.11795
37.12601
37.13311
37.13896
37.14311
37.14533
37.14527
37.1425
37.13601
37.11158
37.12218
37.13157
37.14012
37.14743
37.15265
37.15563
37.15595
37.15326
37.12524
37.1353
37.14597
37.15494
37.1613
37.16416
37.16623
37.13716
37.15035
37.15984
37.16807
37.16964
37.00276
37.0029
37.003
37.00308
37.00315
37.00323
37.0033
37.00338
37.00352
37.00365
37.00376
37.00386
37.00394
37.004
37.00404
37.00405
37.00404
37.004
37.00393
37.00385
37.0038
37.00374
37.00368
37.00361
37.00354
37.00339
37.0037
37.0127
37.01345
37.01391
37.01431
37.01472
37.0151
37.01545
37.0159
37.01661
37.01724
37.0178
37.01828
37.01868
37.01899
37.01919
37.01927
37.01922
37.01902
37.01867
37.01823
37.01796
37.01766
37.01731
37.01694
37.01659
37.01584
37.01594
37.02122
37.02261
37.02335
37.02416
37.02494
37.02566
37.02633
37.02715
37.02844
37.02958
37.0306
37.03147
37.0322
37.03275
37.03312
37.03327
37.03318
37.03282
37.03217
37.03137
37.03086
37.03027
37.0296
37.02885
37.02811
37.02754
37.02529
37.02926
37.03026
37.03155
37.0328
37.03397
37.03505
37.03605
37.03726
37.03913
37.04079
37.04227
37.04354
37.0446
37.04541
37.04595
37.04617
37.04604
37.04552
37.04458
37.0434
37.04264
37.04176
37.04073
37.03957
37.03831
37.03696
37.0352
37.03709
37.03886
37.04048
37.042
37.04341
37.04472
37.04631
37.04878
37.05097
37.05291
37.05459
37.05599
37.05708
37.0578
37.0581
37.05794
37.05727
37.05603
37.05447
37.05346
37.0523
37.05098
37.04949
37.04779
37.04584
37.0427
37.04471
37.04664
37.04864
37.05056
37.05237
37.05406
37.05613
37.05933
37.06218
37.0647
37.0669
37.06873
37.07016
37.07112
37.07154
37.07135
37.07049
37.06889
37.06686
37.06557
37.06409
37.0624
37.06053
37.05859
37.05655
37.05277
37.05572
37.05853
37.0611
37.06351
37.06579
37.06859
37.07295
37.07685
37.08034
37.08338
37.08595
37.08796
37.08933
37.08996
37.08975
37.08861
37.08646
37.08372
37.08198
37.08
37.07776
37.07518
37.07223
37.0694
37.06275
37.06589
37.06899
37.07201
37.07488
37.07843
37.08399
37.08902
37.09354
37.09752
37.10091
37.1036
37.10547
37.10638
37.10619
37.10478
37.10209
37.09864
37.09645
37.09394
37.09119
37.08831
37.08501
37.06708
37.07072
37.0743
37.07816
37.08168
37.086
37.09281
37.09906
37.10473
37.10977
37.11411
37.11759
37.12006
37.12133
37.12122
37.11958
37.11633
37.11216
37.10949
37.10632
37.10266
37.09936
37.07349
37.07761
37.08232
37.08647
37.09156
37.09971
37.1073
37.11426
37.12051
37.12595
37.13039
37.1336
37.13533
37.13537
37.13352
37.1297
37.12476
37.12164
37.1177
37.11266
37.08511
37.0892
37.09532
37.10492
37.11401
37.12243
37.13006
37.13679
37.14238
37.1465
37.14885
37.14914
37.14714
37.14274
37.13703
37.13342
37.12928
37.09181
37.09796
37.10867
37.11944
37.12947
37.13868
37.14693
37.15392
37.15918
37.16231
37.16296
37.16093
37.15612
37.15115
37.11158
37.12379
37.13553
37.14655
37.1566
37.16529
37.172
37.17611
37.17712
37.17517
37.1707
37.12654
37.13998
37.15294
37.16483
37.17526
37.18373
37.1889
37.19031
37.18857
37.14249
37.15673
37.16967
37.18103
37.19124
37.19698
37.19856
37.16187
37.17479
37.18618
37.19947
37.2035
37.0029
37.00295
37.00301
37.00309
37.00317
37.00324
37.00332
37.00339
37.00348
37.00363
37.00376
37.00388
37.00398
37.00407
37.00414
37.00419
37.00422
37.00421
37.00418
37.00411
37.00402
37.00397
37.00391
37.00384
37.00377
37.0037
37.00363
37.00356
37.01354
37.01332
37.01386
37.01434
37.01477
37.01517
37.01556
37.01593
37.0164
37.01713
37.0178
37.0184
37.01892
37.01937
37.01972
37.01996
37.02008
37.02006
37.01988
37.01954
37.0191
37.01882
37.01851
37.01816
37.01778
37.01736
37.01682
37.01633
37.02102
37.02214
37.0233
37.02421
37.02503
37.0258
37.02653
37.02721
37.02806
37.02939
37.0306
37.03168
37.03263
37.03344
37.03408
37.03452
37.03474
37.0347
37.03438
37.03375
37.03295
37.03244
37.03186
37.03119
37.03044
37.02961
37.02856
37.02705
37.02807
37.02998
37.03153
37.03287
37.0341
37.03525
37.03633
37.03733
37.03857
37.04051
37.04227
37.04384
37.04523
37.0464
37.04734
37.04799
37.04831
37.04826
37.0478
37.04689
37.04572
37.04497
37.04409
37.04309
37.04196
37.04069
37.03921
37.03733
37.03576
37.03716
37.03889
37.04056
37.04216
37.04367
37.04508
37.04641
37.04805
37.0506
37.05291
37.05499
37.05683
37.05839
37.05963
37.0605
37.06094
37.06088
37.06029
37.0591
37.05755
37.05655
37.0554
37.05408
37.05259
37.05096
37.04927
37.04749
37.0442
37.04665
37.04877
37.05079
37.05272
37.05453
37.05625
37.05837
37.0617
37.0647
37.06741
37.06981
37.07186
37.07351
37.07466
37.07526
37.07521
37.07445
37.07292
37.07091
37.06962
37.06813
37.06645
37.06456
37.06251
37.0602
37.05774
37.05284
37.05574
37.05867
37.06142
37.064
37.06644
37.06877
37.07166
37.0762
37.08034
37.08409
37.08743
37.09031
37.09263
37.09429
37.09518
37.09517
37.09418
37.09211
37.08938
37.08763
37.08562
37.08335
37.0808
37.0779
37.07464
37.06238
37.06596
37.06941
37.07263
37.07572
37.07868
37.08236
37.08819
37.09354
37.09843
37.10283
37.10664
37.10976
37.11203
37.11329
37.11338
37.11218
37.10957
37.10611
37.10387
37.10131
37.09845
37.0953
37.09164
37.08781
37.07118
37.07511
37.07893
37.08272
37.08634
37.09086
37.09806
37.10473
37.11089
37.11649
37.1214
37.12547
37.12848
37.13021
37.13048
37.1291
37.12596
37.12172
37.11897
37.1158
37.11226
37.1085
37.10524
37.07897
37.08319
37.08775
37.09206
37.09744
37.10612
37.11426
37.12186
37.12884
37.13505
37.14026
37.14419
37.14655
37.14708
37.14557
37.14188
37.13681
37.13354
37.12982
37.12574
37.12232
37.08602
37.09107
37.09602
37.10236
37.11267
37.12243
37.13165
37.14026
37.14802
37.15463
37.1597
37.16284
37.16375
37.16221
37.158
37.152
37.14802
37.14345
37.13833
37.09407
37.09874
37.10588
37.11795
37.12947
37.14053
37.15103
37.16067
37.169
37.17549
37.17962
37.18102
37.17955
37.17484
37.16831
37.16412
37.10811
37.12218
37.13553
37.14863
37.16139
37.1733
37.18377
37.19206
37.1974
37.19934
37.19795
37.19228
37.12524
37.13998
37.15519
37.17037
37.18465
37.1975
37.20781
37.21449
37.21688
37.2154
37.14249
37.15902
37.17582
37.1917
37.2063
37.21805
37.22564
37.22852
37.22672
37.16314
37.18136
37.19897
37.2158
37.22925
37.23716
37.23875
37.1879
37.20666
37.22664
37.24309
37.2463
37.00281
37.00292
37.00304
37.00314
37.00323
37.00331
37.00339
37.00347
37.00356
37.00372
37.00386
37.00398
37.0041
37.0042
37.00428
37.00433
37.00436
37.00437
37.00433
37.00427
37.00418
37.00412
37.00406
37.00399
37.00391
37.00382
37.0037
37.00356
37.00364
37.01293
37.01352
37.01413
37.01465
37.01511
37.01554
37.01594
37.01633
37.01681
37.01758
37.01828
37.01892
37.01949
37.01999
37.02038
37.02067
37.02083
37.02083
37.02067
37.02034
37.01989
37.01961
37.01929
37.01892
37.01851
37.01803
37.01744
37.01676
37.01651
37.02166
37.02287
37.02391
37.02484
37.02569
37.02648
37.02722
37.02792
37.0288
37.03019
37.03147
37.03263
37.03367
37.03456
37.03528
37.0358
37.03609
37.0361
37.03581
37.0352
37.0344
37.03388
37.03329
37.03261
37.03184
37.03096
37.02993
37.02875
37.02717
37.02928
37.03109
37.03255
37.03387
37.0351
37.03626
37.03735
37.03838
37.03966
37.04168
37.04354
37.04523
37.04674
37.04804
37.0491
37.04986
37.05029
37.05031
37.0499
37.04902
37.04784
37.04708
37.04621
37.0452
37.04407
37.04279
37.04136
37.03967
37.03744
37.03597
37.03839
37.04019
37.04188
37.04348
37.045
37.04644
37.04779
37.04948
37.05215
37.05459
37.05683
37.05882
37.06056
37.06197
37.06299
37.06356
37.06361
37.06308
37.06192
37.06037
37.05937
37.05821
37.05689
37.0554
37.05375
37.05196
37.04989
37.04657
37.04471
37.04619
37.0483
37.05043
37.05248
37.05443
37.05628
37.05804
37.06024
37.06371
37.0669
37.06981
37.07244
37.07471
37.07658
37.07794
37.07871
37.0788
37.07814
37.07665
37.07464
37.07333
37.07183
37.07012
37.0682
37.06609
37.06387
37.06197
37.05494
37.05803
37.06093
37.06369
37.06632
37.06883
37.07122
37.07422
37.07898
37.08338
37.08743
37.0911
37.09431
37.09696
37.09892
37.10006
37.10026
37.09939
37.09738
37.09464
37.09285
37.0908
37.08847
37.08587
37.08298
37.0798
37.07658
37.0615
37.0654
37.06883
37.07225
37.07557
37.07877
37.08183
37.08567
37.09181
37.09752
37.10283
37.10767
37.11195
37.11552
37.11821
37.11982
37.12019
37.11917
37.11664
37.11313
37.11083
37.10819
37.1052
37.10191
37.09844
37.09487
37.07023
37.07429
37.07847
37.08254
37.08647
37.09024
37.09498
37.10261
37.10977
37.11649
37.12269
37.12823
37.13291
37.1365
37.13872
37.13936
37.13823
37.13516
37.13083
37.12798
37.12468
37.12091
37.11674
37.11237
37.10673
37.07768
37.08263
37.08753
37.09225
37.09677
37.10247
37.11173
37.12051
37.12884
37.13663
37.14369
37.14974
37.15444
37.15745
37.15848
37.15729
37.15368
37.14847
37.14502
37.141
37.13633
37.13084
37.12565
37.08577
37.09064
37.09636
37.10164
37.10839
37.11945
37.13006
37.14026
37.14994
37.15885
37.16659
37.17269
37.1767
37.17826
37.17708
37.17294
37.16676
37.16265
37.15793
37.15284
37.09233
37.09882
37.10499
37.11292
37.12601
37.13868
37.15103
37.16297
37.17416
37.18402
37.19188
37.19715
37.19939
37.19832
37.19363
37.18644
37.18161
37.17367
37.10748
37.11644
37.13157
37.14655
37.16139
37.17605
37.19005
37.20259
37.2127
37.21957
37.22264
37.22168
37.21667
37.20843
37.1353
37.15294
37.17037
37.18785
37.20488
37.22048
37.23307
37.24174
37.24569
37.2442
37.2385
37.13717
37.15673
37.17582
37.19513
37.21425
37.23215
37.24642
37.25649
37.261
37.2582
37.16187
37.18136
37.20236
37.22374
37.24449
37.26037
37.2724
37.27656
37.1879
37.2093
37.2329
37.25752
37.27423
37.29116
37.24123
37.27154
37.28354
37.00303
37.00284
37.00296
37.00308
37.00318
37.00328
37.00337
37.00345
37.00353
37.00363
37.00379
37.00394
37.00407
37.0042
37.0043
37.00439
37.00446
37.0045
37.0045
37.00447
37.00441
37.00432
37.00426
37.0042
37.00412
37.00404
37.00394
37.00382
37.00368
37.00361
37.01287
37.01316
37.01379
37.01437
37.01489
37.01537
37.01581
37.01623
37.01663
37.01713
37.01794
37.01868
37.01937
37.01999
37.02053
37.02097
37.0213
37.02149
37.02152
37.02138
37.02105
37.0206
37.02031
37.01997
37.0196
37.01917
37.01867
37.01809
37.01742
37.01673
37.02052
37.02212
37.02335
37.02438
37.02532
37.02618
37.02698
37.02775
37.02848
37.02939
37.03084
37.0322
37.03344
37.03456
37.03554
37.03634
37.03694
37.03729
37.03735
37.0371
37.03649
37.03568
37.03515
37.03454
37.03385
37.03306
37.03216
37.03113
37.0299
37.02815
37.02994
37.03173
37.03323
37.03458
37.03583
37.03701
37.03812
37.03918
37.04051
37.04263
37.0446
37.0464
37.04804
37.04947
37.05065
37.05153
37.05205
37.05215
37.05178
37.05091
37.04972
37.04895
37.04806
37.04704
37.04588
37.04457
37.04308
37.04129
37.03879
37.0369
37.03912
37.04105
37.0428
37.04444
37.04599
37.04746
37.04886
37.0506
37.0534
37.05599
37.05839
37.06056
37.06246
37.06403
37.06521
37.06591
37.06605
37.06558
37.06444
37.06288
37.06186
37.06068
37.05933
37.05781
37.0561
37.05416
37.05189
37.04906
37.04477
37.04712
37.04942
37.05162
37.05372
37.05572
37.05762
37.05943
37.06171
37.06535
37.06873
37.07186
37.07471
37.07723
37.07931
37.08088
37.08182
37.08204
37.08145
37.07999
37.07795
37.07663
37.07509
37.07334
37.07138
37.0692
37.06684
37.06437
37.06172
37.05345
37.05659
37.05964
37.06256
37.06537
37.06807
37.07066
37.07314
37.07625
37.08126
37.08595
37.09031
37.09431
37.09786
37.10084
37.1031
37.10449
37.10488
37.10413
37.10215
37.09937
37.09755
37.09544
37.09304
37.09036
37.08741
37.08422
37.08066
37.06312
37.06714
37.07084
37.07441
37.07784
37.08114
37.08432
37.08833
37.09481
37.10091
37.10664
37.11195
37.11671
37.12075
37.12386
37.12583
37.12646
37.1256
37.12311
37.11955
37.11719
37.11447
37.11138
37.10792
37.10407
37.09976
37.09451
37.07187
37.07674
37.08118
37.08539
37.08945
37.09337
37.09834
37.10642
37.11411
37.1214
37.12823
37.13443
37.13975
37.14391
37.14663
37.14764
37.14673
37.14373
37.13932
37.13639
37.13299
37.12913
37.12475
37.11959
37.11335
37.08066
37.08604
37.09102
37.0959
37.10063
37.10663
37.11648
37.12595
37.13505
37.14369
37.15164
37.15856
37.16406
37.16774
37.16927
37.16838
37.16486
37.15956
37.156
37.15182
37.14706
37.14182
37.13636
37.08961
37.0949
37.10079
37.1064
37.11351
37.12529
37.13679
37.14802
37.15885
37.16896
37.17789
37.18509
37.19001
37.19224
37.19145
37.18742
37.18121
37.17699
37.1719
37.16567
37.16164
37.09911
37.10438
37.11095
37.11921
37.13311
37.14693
37.16067
37.17416
37.18699
37.19848
37.20785
37.21436
37.2175
37.21691
37.21228
37.2051
37.20041
37.19543
37.11438
37.12403
37.14013
37.1566
37.1733
37.19005
37.20633
37.22114
37.23328
37.24183
37.24612
37.24586
37.24022
37.23167
37.22178
37.13022
37.14597
37.16483
37.18465
37.20488
37.22507
37.24369
37.25897
37.26978
37.27526
37.27536
37.26733
37.15035
37.16967
37.1917
37.21425
37.23736
37.2588
37.27628
37.28868
37.29488
37.29468
37.1748
37.19897
37.22374
37.25043
37.27514
37.29508
37.30901
37.31584
37.31261
37.20666
37.2329
37.26447
37.29278
37.3157
37.32993
37.3333
37.24123
37.28126
37.31176
37.3398
37.34839
37.00307
37.00285
37.00298
37.00311
37.00322
37.00331
37.0034
37.00349
37.00357
37.00367
37.00384
37.004
37.00414
37.00428
37.00439
37.00449
37.00456
37.00461
37.00462
37.00459
37.00453
37.00443
37.00438
37.00431
37.00423
37.00415
37.00404
37.00392
37.00377
37.0037
37.01304
37.01322
37.0139
37.01451
37.01505
37.01553
37.01599
37.01642
37.01684
37.01736
37.0182
37.01899
37.01972
37.02038
37.02097
37.02146
37.02182
37.02205
37.0221
37.02197
37.02164
37.02118
37.02088
37.02054
37.02015
37.01971
37.0192
37.0186
37.01786
37.01716
37.02077
37.02231
37.02359
37.02465
37.0256
37.02648
37.02731
37.0281
37.02885
37.0298
37.03133
37.03275
37.03408
37.03528
37.03634
37.03723
37.0379
37.03831
37.03841
37.03818
37.03758
37.03675
37.0362
37.03558
37.03487
37.03406
37.03314
37.03208
37.0308
37.02903
37.02725
37.03032
37.03211
37.03362
37.035
37.03628
37.03749
37.03864
37.03974
37.04111
37.04334
37.04541
37.04734
37.0491
37.05065
37.05195
37.05294
37.05354
37.0537
37.05337
37.0525
37.05129
37.0505
37.04958
37.04854
37.04735
37.04601
37.04449
37.04269
37.03995
37.03726
37.03959
37.04156
37.04335
37.04504
37.04663
37.04814
37.04959
37.05141
37.05434
37.05708
37.05963
37.06197
37.06403
37.06577
37.06709
37.0679
37.06813
37.06771
37.06657
37.06498
37.06393
37.06272
37.06134
37.05977
37.05801
37.05603
37.05366
37.05049
37.04522
37.04774
37.05009
37.05234
37.05449
37.05655
37.05851
37.06039
37.06276
37.06658
37.07016
37.07351
37.07658
37.07931
37.08162
37.08338
37.08448
37.08481
37.08428
37.08282
37.08075
37.07939
37.07781
37.07601
37.07399
37.07176
37.06935
37.0668
37.06379
37.05499
37.05761
37.06058
37.06355
37.06644
37.06923
37.0719
37.07448
37.07773
37.08299
37.08796
37.09263
37.09696
37.10084
37.10414
37.10669
37.10831
37.10886
37.1082
37.10623
37.10339
37.10152
37.09935
37.09688
37.09411
37.09109
37.08796
37.08531
37.06385
37.0682
37.07211
37.07581
37.07936
37.08278
37.08609
37.09028
37.09711
37.1036
37.10976
37.11552
37.12075
37.12524
37.12875
37.13105
37.13193
37.1312
37.12873
37.12508
37.12266
37.11985
37.11666
37.11308
37.10906
37.10438
37.09904
37.07399
37.07848
37.083
37.08734
37.09155
37.09564
37.10085
37.10939
37.11759
37.12547
37.13291
37.13975
37.1457
37.15043
37.15362
37.15497
37.15425
37.15127
37.14676
37.14374
37.14024
37.1363
37.13193
37.12728
37.12417
37.08285
37.08834
37.09348
37.09853
37.10348
37.10979
37.12023
37.13039
37.14026
37.14974
37.15856
37.16633
37.17262
37.17697
37.17898
37.17835
37.17489
37.16945
37.16578
37.16149
37.15669
37.15155
37.14679
37.09227
37.0979
37.10407
37.10994
37.11744
37.12999
37.14238
37.15463
37.16659
37.17789
37.18801
37.19629
37.20213
37.20502
37.20462
37.20068
37.19432
37.19001
37.18478
37.17855
37.17485
37.10292
37.10875
37.11529
37.12408
37.13896
37.15392
37.169
37.18402
37.19848
37.21162
37.2225
37.23027
37.23434
37.23432
37.22988
37.22246
37.21766
37.21331
37.11973
37.13005
37.14743
37.16529
37.18377
37.2026
37.22114
37.23824
37.25251
37.26282
37.26841
37.26903
37.26406
37.25568
37.24505
37.1382
37.15494
37.17526
37.1975
37.22049
37.24369
37.26543
37.28366
37.29689
37.30413
37.30551
37.30166
37.15984
37.18103
37.2063
37.23215
37.2588
37.28399
37.30516
37.32054
37.32909
37.3297
37.32342
37.18618
37.2158
37.24449
37.27514
37.30439
37.32902
37.34682
37.35836
37.35446
37.22664
37.25753
37.29278
37.32683
37.35564
37.37521
37.39175
37.27154
37.31176
37.35109
37.38731
37.40084
37.00339
37.00286
37.00299
37.00312
37.00323
37.00333
37.00342
37.00351
37.00359
37.0037
37.00387
37.00404
37.00419
37.00433
37.00446
37.00456
37.00464
37.00469
37.00471
37.00468
37.00462
37.00452
37.00446
37.00439
37.00432
37.00423
37.00413
37.004
37.00385
37.00379
37.0133
37.01325
37.01394
37.01456
37.01511
37.0156
37.01607
37.01651
37.01694
37.01748
37.01836
37.01919
37.01996
37.02067
37.0213
37.02183
37.02223
37.02247
37.02255
37.02242
37.02209
37.02162
37.02132
37.02097
37.02057
37.02012
37.01959
37.01897
37.01823
37.01749
37.02244
37.02363
37.02471
37.02569
37.0266
37.02745
37.02827
37.02905
37.03003
37.03162
37.03312
37.03452
37.0358
37.03694
37.0379
37.03863
37.03908
37.03922
37.039
37.0384
37.03755
37.03699
37.03634
37.03561