/*--------------------------------*- C++ -*----------------------------------*\
| =========                 |                                                 |
| \\      /  F ield         | OpenFOAM: The Open Source CFD Toolbox           |
|  \\    /   O peration     | Version:  5.x                                   |
|   \\  /    A nd           | Web:      www.OpenFOAM.org                      |
|    \\/     M anipulation  |                                                 |
\*---------------------------------------------------------------------------*/
FoamFile
{
    version     2.0;
    format      ascii;
    class       volScalarField;
    location    "10/muscle";
    object      T;
}
// * * * * * * * * * * * * * * * * * * * * * * * * * * * * * * * * * * * * * //

dimensions      [0 0 0 1 0 0 0];

internalField   nonuniform List<scalar> 
209768
(
37.00164
37.00156
37.00156
37.00156
37.00632
37.00664
37.00668
37.00655
37.01202
37.01206
37.01197
37.01698
37.01699
37.01698
37.02088
37.02101
37.00145
37.00147
37.00147
37.00149
37.00149
37.00149
37.00148
37.00141
37.00161
37.0067
37.00696
37.00703
37.00711
37.00709
37.00714
37.00702
37.00665
37.012
37.01224
37.01235
37.01237
37.01236
37.0124
37.0123
37.01211
37.01708
37.01706
37.01725
37.01732
37.01731
37.01725
37.01719
37.01708
37.02115
37.02146
37.02183
37.02194
37.02199
37.0219
37.02174
37.02148
37.02522
37.02598
37.0261
37.02625
37.02634
37.02619
37.02601
37.02585
37.03002
37.03022
37.0302
37.03024
37.03018
37.02986
37.02999
37.0339
37.03357
37.03387
37.03392
37.03397
37.0337
37.03429
37.03713
37.03733
37.03745
37.03756
37.03719
37.03718
37.04151
37.04179
37.04174
37.04191
37.04124
37.00148
37.00155
37.00153
37.00153
37.00153
37.00153
37.00153
37.00153
37.00152
37.00149
37.00172
37.0067
37.00721
37.0073
37.00734
37.00734
37.00733
37.00736
37.00732
37.00723
37.00701
37.00628
37.01198
37.01237
37.01263
37.01273
37.01276
37.01275
37.01276
37.01268
37.01251
37.01219
37.01186
37.0169
37.01725
37.01754
37.01773
37.01783
37.01783
37.01779
37.01765
37.01742
37.01711
37.01705
37.02114
37.02186
37.02221
37.02243
37.02258
37.02262
37.02251
37.02235
37.02208
37.02184
37.02077
37.02558
37.02625
37.02663
37.02681
37.02696
37.02701
37.02689
37.02672
37.02655
37.02592
37.02522
37.02977
37.03044
37.03069
37.03088
37.03099
37.03102
37.03095
37.03078
37.03056
37.03004
37.03295
37.03466
37.03454
37.03467
37.03481
37.03483
37.03477
37.03457
37.03445
37.0341
37.03651
37.03737
37.03789
37.03822
37.03845
37.03848
37.03835
37.03807
37.03769
37.03713
37.04155
37.04228
37.04257
37.04282
37.04285
37.04276
37.04235
37.0417
37.04116
37.0474
37.04813
37.04943
37.04956
37.04896
37.04759
37.04675
37.053
37.05393
37.05388
37.05335
37.05259
37.00153
37.0015
37.0015
37.00155
37.00156
37.00157
37.00157
37.00157
37.00157
37.00156
37.00156
37.00153
37.00148
37.00135
37.00612
37.00685
37.00711
37.00736
37.00746
37.00751
37.00752
37.00752
37.00752
37.00749
37.00742
37.00725
37.00697
37.00655
37.01194
37.01234
37.0127
37.01291
37.01302
37.01307
37.01307
37.01305
37.01298
37.01282
37.01254
37.01215
37.01189
37.01689
37.01728
37.01771
37.01798
37.01816
37.01825
37.01826
37.01821
37.01808
37.01786
37.01753
37.01705
37.01698
37.02128
37.02194
37.02244
37.02275
37.02295
37.02308
37.02311
37.02303
37.02287
37.02262
37.02225
37.02159
37.02106
37.02546
37.02628
37.02687
37.02722
37.02743
37.02757
37.0276
37.02751
37.02733
37.02707
37.0266
37.02584
37.0254
37.02938
37.03028
37.03099
37.03136
37.03159
37.03173
37.03176
37.03167
37.03148
37.0312
37.03067
37.03001
37.0294
37.0329
37.03387
37.03483
37.0352
37.03547
37.03563
37.03566
37.03557
37.03534
37.03503
37.03444
37.0333
37.03663
37.03733
37.03823
37.03875
37.03908
37.0393
37.03934
37.03921
37.03893
37.03852
37.03788
37.03677
37.04102
37.04156
37.04235
37.04302
37.04345
37.04373
37.04379
37.04362
37.04324
37.04268
37.04193
37.04146
37.04725
37.04815
37.04891
37.04957
37.05017
37.05028
37.04992
37.04922
37.04849
37.04761
37.05353
37.054
37.0545
37.05506
37.05513
37.05485
37.05414
37.05345
37.05291
37.05758
37.05875
37.05885
37.05896
37.05863
37.05817
37.00147
37.00156
37.00155
37.00157
37.00158
37.00159
37.0016
37.0016
37.0016
37.00159
37.00158
37.00156
37.00154
37.00153
37.00151
37.00722
37.0073
37.00736
37.00749
37.00759
37.00764
37.00766
37.00767
37.00766
37.00762
37.00755
37.00743
37.00731
37.00727
37.00647
37.01205
37.01248
37.01271
37.01298
37.01316
37.01327
37.01332
37.01333
37.0133
37.01322
37.01308
37.01286
37.01258
37.01238
37.01185
37.01691
37.01731
37.01772
37.0181
37.01836
37.01852
37.01861
37.01862
37.01857
37.01845
37.01824
37.01793
37.01751
37.01713
37.0169
37.02133
37.02187
37.02244
37.02291
37.02322
37.02342
37.02353
37.02356
37.02348
37.02333
37.02308
37.0227
37.02215
37.02162
37.02084
37.0255
37.02616
37.02687
37.02741
37.02776
37.02798
37.02811
37.02814
37.02806
37.02788
37.0276
37.02716
37.02653
37.02583
37.02518
37.02939
37.03027
37.03099
37.03159
37.03198
37.03223
37.03238
37.03241
37.03232
37.03212
37.0318
37.03131
37.03065
37.02982
37.0292
37.03292
37.034
37.03474
37.03545
37.0359
37.03619
37.03637
37.0364
37.0363
37.03606
37.0357
37.03513
37.03435
37.0337
37.0366
37.03735
37.03825
37.03901
37.03953
37.03988
37.04009
37.04013
37.04
37.03972
37.03929
37.03866
37.0378
37.0369
37.04064
37.04176
37.04252
37.04327
37.04389
37.04432
37.04459
37.04465
37.04448
37.04412
37.0436
37.0429
37.04216
37.04117
37.04752
37.04846
37.0494
37.05014
37.05072
37.05113
37.05121
37.05096
37.05044
37.04979
37.04895
37.04808
37.0473
37.05331
37.05447
37.05526
37.0559
37.05631
37.05639
37.05616
37.05558
37.05487
37.05395
37.05304
37.05712
37.05821
37.05924
37.06003
37.06038
37.06048
37.06022
37.05968
37.05886
37.05768
37.06223
37.06304
37.06354
37.06364
37.06337
37.06271
37.06163
37.00147
37.00153
37.00157
37.00158
37.00159
37.00161
37.00162
37.00162
37.00162
37.00162
37.00161
37.0016
37.00158
37.00157
37.00156
37.00148
37.00172
37.00677
37.00727
37.00745
37.00752
37.00762
37.0077
37.00776
37.00779
37.00779
37.00778
37.00773
37.00767
37.00757
37.00748
37.00739
37.00702
37.00634
37.01193
37.01246
37.0128
37.01301
37.01323
37.01339
37.01349
37.01354
37.01356
37.01352
37.01344
37.01331
37.01313
37.0129
37.01267
37.01218
37.01177
37.01673
37.01727
37.01774
37.01813
37.01845
37.01869
37.01884
37.01892
37.01894
37.01889
37.01877
37.01858
37.0183
37.01794
37.01753
37.01698
37.01677
37.021
37.02181
37.0224
37.02292
37.02335
37.02364
37.02383
37.02394
37.02396
37.0239
37.02375
37.02351
37.02315
37.02267
37.02212
37.02145
37.02039
37.02523
37.0261
37.02681
37.02743
37.02792
37.02826
37.02849
37.02862
37.02864
37.02856
37.02839
37.02811
37.02769
37.02713
37.02647
37.02567
37.02469
37.02929
37.0302
37.03097
37.03163
37.03218
37.03257
37.03283
37.03298
37.03301
37.03292
37.03271
37.03239
37.03192
37.03131
37.0306
37.02982
37.03259
37.03389
37.03479
37.0355
37.03612
37.03657
37.03687
37.03705
37.03708
37.03698
37.03674
37.03636
37.03583
37.03515
37.03439
37.03321
37.03618
37.03723
37.03826
37.03908
37.03977
37.04028
37.04063
37.04083
37.04088
37.04075
37.04047
37.04005
37.03945
37.03869
37.03778
37.03661
37.04158
37.04257
37.04343
37.04417
37.04476
37.04517
37.04542
37.04548
37.04532
37.04499
37.04448
37.04381
37.04301
37.0421
37.04092
37.04775
37.04861
37.04965
37.05054
37.05126
37.0518
37.05213
37.0522
37.05199
37.05155
37.05092
37.05012
37.04917
37.04809
37.04733
37.05325
37.05464
37.05572
37.05655
37.05718
37.05756
37.05764
37.05741
37.05689
37.05616
37.05522
37.054
37.0527
37.05699
37.05833
37.05969
37.06071
37.06146
37.06189
37.06198
37.06171
37.06113
37.06024
37.0591
37.05773
37.06088
37.06256
37.06374
37.06468
37.06528
37.0654
37.06504
37.06424
37.06301
37.06183
37.06549
37.06677
37.06797
37.06817
37.0674
37.06626
37.06404
37.00156
37.00148
37.00154
37.00158
37.0016
37.00161
37.00163
37.00164
37.00164
37.00164
37.00164
37.00163
37.00162
37.0016
37.00159
37.00156
37.00151
37.00146
37.00654
37.00705
37.00735
37.00753
37.00764
37.00774
37.00781
37.00787
37.0079
37.0079
37.00788
37.00784
37.00778
37.00769
37.00759
37.00746
37.0072
37.00689
37.0118
37.01226
37.0127
37.01303
37.01326
37.01345
37.01359
37.01369
37.01374
37.01375
37.01372
37.01365
37.01353
37.01336
37.01315
37.01289
37.01248
37.01203
37.01664
37.01715
37.01768
37.01813
37.01848
37.01877
37.01899
37.01913
37.01921
37.01922
37.01918
37.01907
37.01889
37.01864
37.01831
37.01792
37.01742
37.01687
37.02073
37.02171
37.02236
37.02291
37.02338
37.02375
37.02403
37.02421
37.02432
37.02434
37.02427
37.02413
37.0239
37.02358
37.02315
37.02265
37.02205
37.0213
37.02513
37.02601
37.02677
37.02741
37.02796
37.02841
37.02874
37.02896
37.02908
37.02911
37.02903
37.02886
37.02859
37.0282
37.0277
37.0271
37.0264
37.02541
37.02932
37.02989
37.03088
37.03162
37.03224
37.03275
37.03313
37.03338
37.03353
37.03356
37.03347
37.03327
37.03295
37.03251
37.03194
37.03127
37.03043
37.0294
37.03227
37.0335
37.03464
37.0355
37.0362
37.03678
37.03721
37.03751
37.03768
37.03771
37.03761
37.03738
37.03701
37.03651
37.03587
37.0351
37.0341
37.0329
37.03692
37.03813
37.03909
37.03987
37.04052
37.04101
37.04135
37.04155
37.04159
37.04147
37.0412
37.04078
37.04021
37.0395
37.03864
37.03757
37.03633
37.04109
37.04241
37.04345
37.04431
37.04503
37.0456
37.046
37.04623
37.04628
37.04614
37.04582
37.04534
37.04469
37.0439
37.04296
37.04176
37.04066
37.04684
37.04849
37.0497
37.05075
37.05162
37.05232
37.05282
37.05313
37.05319
37.053
37.05259
37.05199
37.05121
37.05025
37.04911
37.04767
37.05301
37.05456
37.05589
37.05697
37.0578
37.05841
37.05877
37.05885
37.05863
37.05814
37.05741
37.05646
37.05526
37.05381
37.05236
37.05639
37.0582
37.05979
37.06113
37.06214
37.06289
37.06333
37.06342
37.06315
37.06255
37.06167
37.06052
37.05905
37.05738
37.06077
37.0625
37.06415
37.06537
37.06632
37.06693
37.06706
37.06668
37.06588
37.06476
37.06339
37.06167
37.0646
37.06588
37.06746
37.0687
37.06973
37.06992
37.06929
37.06808
37.06654
37.06502
37.06953
37.07034
37.07154
37.07169
37.07113
37.06928
37.06908
37.00158
37.00147
37.00151
37.00156
37.00159
37.00161
37.00163
37.00165
37.00166
37.00166
37.00166
37.00166
37.00165
37.00164
37.00162
37.0016
37.00158
37.00154
37.00149
37.00144
37.00651
37.00694
37.00723
37.00746
37.00763
37.00775
37.00785
37.00792
37.00797
37.008
37.008
37.00799
37.00795
37.00788
37.0078
37.00769
37.00755
37.00735
37.00709
37.0068
37.0117
37.01209
37.01257
37.01295
37.01325
37.01347
37.01365
37.01378
37.01388
37.01393
37.01394
37.01391
37.01384
37.01372
37.01356
37.01336
37.01311
37.01277
37.01234
37.01189
37.01651
37.01695
37.01759
37.01808
37.01848
37.01881
37.01907
37.01927
37.0194
37.01948
37.01949
37.01945
37.01934
37.01918
37.01895
37.01865
37.01829
37.01784
37.01731
37.01666
37.02151
37.02227
37.02287
37.02337
37.02379
37.02414
37.0244
37.02457
37.02467
37.02469
37.02463
37.02449
37.02428
37.02398
37.02359
37.02313
37.02258
37.02192
37.02115
37.02572
37.0266
37.02734
37.02795
37.02846
37.02887
37.02919
37.0294
37.02952
37.02954
37.02947
37.0293
37.02904
37.02868
37.02822
37.02766
37.02699
37.02616
37.02534
37.02986
37.03063
37.03151
37.03222
37.03281
37.03329
37.03366
37.03391
37.03405
37.03408
37.03399
37.0338
37.03349
37.03307
37.03253
37.03188
37.03109
37.03016
37.02929
37.03318
37.03436
37.03537
37.03619
37.03686
37.03741
37.03782
37.03811
37.03828
37.03831
37.03821
37.03799
37.03763
37.03715
37.03654
37.0358
37.03488
37.03383
37.03287
37.03661
37.03786
37.03896
37.03987
37.04062
37.04123
37.0417
37.04203
37.04222
37.04226
37.04215
37.04189
37.04149
37.04094
37.04026
37.03943
37.03843
37.03726
37.03645
37.04084
37.04205
37.04329
37.04431
37.04516
37.04586
37.04641
37.04679
37.04701
37.04706
37.04692
37.04662
37.04615
37.04553
37.04476
37.04383
37.0427
37.04145
37.04606
37.04793
37.04951
37.05075
37.05179
37.05265
37.05332
37.05381
37.05409
37.05415
37.05398
37.05359
37.05301
37.05224
37.05129
37.05016
37.04876
37.04696
37.05283
37.05436
37.05585
37.05713
37.05818
37.059
37.05959
37.05994
37.06001
37.0598
37.05933
37.05862
37.05768
37.05652
37.05513
37.05355
37.05222
37.05664
37.05805
37.05978
37.06128
37.06255
37.06354
37.06427
37.0647
37.06479
37.06453
37.06394
37.06308
37.06195
37.06056
37.05896
37.0571
37.06122
37.06266
37.06435
37.06583
37.06702
37.06793
37.06851
37.06863
37.06827
37.06751
37.06645
37.06513
37.06353
37.06203
37.06495
37.06665
37.06814
37.06952
37.07063
37.07146
37.07164
37.07112
37.07009
37.06885
37.06738
37.06591
37.0688
37.07036
37.07151
37.0726
37.07362
37.07381
37.07322
37.07203
37.07082
37.06961
37.07311
37.07421
37.07543
37.07554
37.07485
37.07404
37.0017
37.00146
37.0015
37.00154
37.00158
37.00161
37.00163
37.00165
37.00167
37.00168
37.00168
37.00168
37.00168
37.00167
37.00166
37.00164
37.00162
37.0016
37.00156
37.00152
37.00148
37.00147
37.00634
37.00688
37.00718
37.0074
37.00759
37.00774
37.00786
37.00795
37.00802
37.00807
37.00809
37.0081
37.00808
37.00804
37.00799
37.0079
37.0078
37.00767
37.0075
37.00729
37.00706
37.00662
37.01171
37.01224
37.01251
37.01287
37.0132
37.01346
37.01367
37.01384
37.01397
37.01405
37.0141
37.01411
37.01408
37.01401
37.01391
37.01376
37.01357
37.01333
37.01304
37.01269
37.01233
37.01173
37.01672
37.01674
37.01749
37.018
37.01843
37.0188
37.0191
37.01935
37.01953
37.01966
37.01973
37.01974
37.0197
37.0196
37.01945
37.01923
37.01896
37.01862
37.01822
37.01775
37.01722
37.01664
37.02125
37.02211
37.02276
37.02332
37.02379
37.02418
37.0245
37.02474
37.02491
37.025
37.02502
37.02496
37.02483
37.02463
37.02435
37.024
37.02356
37.02305
37.02245
37.02177
37.02075
37.0255
37.02636
37.02718
37.02787
37.02845
37.02893
37.02932
37.02961
37.02982
37.02993
37.02995
37.02988
37.02972
37.02948
37.02913
37.0287
37.02818
37.02754
37.02678
37.02591
37.0252
37.02937
37.03042
37.03131
37.03212
37.0328
37.03336
37.03382
37.03416
37.0344
37.03454
37.03457
37.03448
37.0343
37.034
37.0336
37.03309
37.03247
37.03173
37.03087
37.02989
37.0292
37.03314
37.03418
37.03514
37.03606
37.03684
37.03749
37.03801
37.03841
37.03869
37.03884
37.03888
37.03878
37.03856
37.03822
37.03776
37.03718
37.03647
37.03562
37.03466
37.03383
37.03739
37.03762
37.0387
37.03973
37.0406
37.04133
37.04192
37.04237
37.04269
37.04287
37.0429
37.04279
37.04254
37.04216
37.04164
37.04098
37.04019
37.03923
37.03815
37.03715
37.04126
37.04174
37.04298
37.04416
37.04515
37.04598
37.04665
37.04718
37.04755
37.04776
37.0478
37.04767
37.04738
37.04693
37.04633
37.04558
37.04468
37.04359
37.04235
37.04141
37.04725
37.0491
37.05056
37.05177
37.05279
37.05363
37.05428
37.05475
37.05502
37.05507
37.05491
37.05454
37.05398
37.05323
37.05231
37.05119
37.04986
37.04825
37.04649
37.05249
37.05406
37.05566
37.05711
37.05834
37.05936
37.06015
37.06073
37.06106
37.06113
37.06093
37.06047
37.05978
37.05888
37.05775
37.05641
37.05488
37.05312
37.05789
37.05965
37.06131
37.06274
37.06394
37.0649
37.0656
37.06602
37.0661
37.06585
37.06528
37.06445
37.06337
37.06205
37.06051
37.05874
37.05738
37.06033
37.0627
37.06451
37.06611
37.06749
37.06862
37.06948
37.07001
37.07012
37.06979
37.06909
37.06809
37.06683
37.06533
37.06367
37.06164
37.06506
37.06675
37.06865
37.07015
37.07144
37.07247
37.07316
37.07331
37.07287
37.07198
37.07082
37.06943
37.06777
37.06588
37.06862
37.07042
37.07216
37.07356
37.07475
37.07556
37.07573
37.07523
37.0742
37.07288
37.07141
37.06964
37.0731
37.07489
37.07664
37.07748
37.07764
37.0772
37.07588
37.07398
37.07217
37.07902
37.07981
37.07987
37.07966
37.00172
37.00146
37.00149
37.00154
37.00157
37.00161
37.00163
37.00165
37.00167
37.00169
37.00169
37.0017
37.0017
37.0017
37.00169
37.00168
37.00166
37.00164
37.00162
37.00159
37.00156
37.00152
37.00146
37.00149
37.00636
37.00685
37.00712
37.00737
37.00756
37.00771
37.00785
37.00796
37.00805
37.00811
37.00816
37.00818
37.00819
37.00817
37.00814
37.00808
37.008
37.00791
37.00779
37.00764
37.00747
37.00727
37.00696
37.00669
37.01182
37.01199
37.01242
37.01283
37.01314
37.01342
37.01366
37.01386
37.01402
37.01414
37.01422
37.01427
37.01428
37.01425
37.01418
37.01408
37.01394
37.01377
37.01355
37.01329
37.01299
37.01265
37.01215
37.01188
37.01685
37.0168
37.0173
37.0179
37.01836
37.01876
37.0191
37.01938
37.01961
37.01978
37.0199
37.01997
37.01998
37.01994
37.01985
37.0197
37.0195
37.01924
37.01893
37.01856
37.01814
37.01764
37.01701
37.01669
37.02055
37.02137
37.02186
37.0226
37.02321
37.02373
37.02417
37.02454
37.02484
37.02507
37.02523
37.02532
37.02533
37.02528
37.02516
37.02496
37.0247
37.02437
37.02396
37.02348
37.02291
37.02226
37.02155
37.02088
37.0248
37.02537
37.02606
37.02696
37.02772
37.02837
37.02892
37.02937
37.02974
37.03002
37.03021
37.03032
37.03034
37.03028
37.03013
37.02989
37.02956
37.02915
37.02865
37.02805
37.02735
37.02653
37.02566
37.02515
37.02934
37.03009
37.03108
37.03193
37.03269
37.03334
37.03388
37.03431
37.03464
37.03488
37.035
37.03503
37.03495
37.03477
37.03449
37.03411
37.03362
37.03303
37.03233
37.03151
37.03061
37.02961
37.02931
37.03297
37.03395
37.03492
37.03585
37.03672
37.03747
37.03808
37.03858
37.03897
37.03924
37.03939
37.03942
37.03933
37.03912
37.03879
37.03835
37.03779
37.03711
37.0363
37.03539
37.03446
37.0335
37.03256
37.03674
37.0375
37.03843
37.03948
37.04046
37.0413
37.042
37.04257
37.043
37.04331
37.04348
37.04352
37.04341
37.04317
37.0428
37.0423
37.04167
37.0409
37.03999
37.03895
37.03793
37.03707
37.04116
37.04154
37.04262
37.04385
37.04499
37.04595
37.04676
37.04741
37.04792
37.04827
37.04847
37.04851
37.04839
37.04811
37.04768
37.0471
37.04637
37.04549
37.04444
37.04324
37.04208
37.04129
37.04649
37.04851
37.05018
37.05158
37.05276
37.05376
37.05457
37.0552
37.05565
37.05591
37.05596
37.05581
37.05545
37.05491
37.05419
37.05328
37.05219
37.0509
37.04938
37.04755
37.05346
37.05529
37.0569
37.05831
37.05951
37.06049
37.06126
37.06181
37.06213
37.0622
37.062
37.06157
37.0609
37.06003
37.05894
37.05764
37.05612
37.05441
37.05248
37.05726
37.0592
37.06111
37.06274
37.06413
37.06529
37.06621
37.06688
37.06727
37.06736
37.06712
37.06658
37.06578
37.06474
37.06347
37.06196
37.06018
37.05827
37.06191
37.06433
37.06618
37.06775
37.06908
37.07016
37.07097
37.07146
37.07156
37.07126
37.0706
37.06965
37.06844
37.06699
37.0653
37.06322
37.06062
37.06406
37.06654
37.06866
37.07048
37.07199
37.07323
37.0742
37.0748
37.07493
37.07455
37.07375
37.07265
37.07127
37.06962
37.06764
37.06548
37.06786
37.07028
37.07231
37.07411
37.07556
37.07671
37.07743
37.07757
37.07714
37.07619
37.07486
37.07327
37.07136
37.06918
37.07292
37.0752
37.07711
37.07872
37.07952
37.07967
37.07922
37.07805
37.07608
37.07408
37.07135
37.0746
37.07826
37.08029
37.08113
37.08127
37.08077
37.07973
37.07611
37.00153
37.00146
37.00148
37.00152
37.00157
37.0016
37.00163
37.00165
37.00167
37.00169
37.0017
37.00171
37.00172
37.00172
37.00172
37.00171
37.0017
37.00168
37.00166
37.00164
37.00162
37.00158
37.00154
37.00149
37.00147
37.00146
37.00168
37.00638
37.00689
37.00707
37.00727
37.00751
37.00768
37.00783
37.00795
37.00806
37.00814
37.0082
37.00825
37.00827
37.00828
37.00826
37.00823
37.00817
37.0081
37.00801
37.00789
37.00776
37.0076
37.0074
37.00715
37.00699
37.0067
37.01181
37.01204
37.01229
37.01264
37.01306
37.01337
37.01363
37.01385
37.01404
37.01419
37.0143
37.01438
37.01443
37.01444
37.01441
37.01435
37.01425
37.01412
37.01395
37.01375
37.0135
37.01322
37.01287
37.01243
37.01216
37.01192
37.01689
37.01684
37.01718
37.01765
37.01823
37.01867
37.01905
37.01937
37.01964
37.01986
37.02002
37.02014
37.0202
37.02022
37.02018
37.02009
37.01995
37.01975
37.01951
37.01922
37.01887
37.01846
37.01797
37.01737
37.01699
37.01676
37.02066
37.02126
37.02178
37.02232
37.02303
37.02361
37.02411
37.02453
37.02488
37.02517
37.02538
37.02553
37.02562
37.02563
37.02558
37.02547
37.02528
37.02503
37.02471
37.02433
37.02387
37.02333
37.02269
37.022
37.02153
37.021
37.02496
37.02548
37.02605
37.02664
37.02749
37.02821
37.02883
37.02935
37.02979
37.03014
37.0304
37.03059
37.03069
37.03072
37.03065
37.03051
37.03028
37.02997
37.02958
37.0291
37.02853
37.02787
37.02709
37.02627
37.02581
37.02513
37.02945
37.02998
37.0307
37.03168
37.0325
37.03323
37.03386
37.03437
37.03479
37.03511
37.03533
37.03545
37.03548
37.0354
37.03523
37.03496
37.03459
37.03413
37.03356
37.03288
37.0321
37.03122
37.03026
37.0297
37.02937
37.03291
37.03369
37.03453
37.03557
37.0365
37.03734
37.03806
37.03865
37.03913
37.0395
37.03976
37.0399
37.03993
37.03985
37.03965
37.03933
37.03891
37.03837
37.03771
37.03693
37.03605
37.03507
37.03404
37.03329
37.03252
37.03632
37.03723
37.03805
37.03915
37.04021
37.04116
37.04197
37.04265
37.04319
37.04361
37.04391
37.04407
37.0441
37.04401
37.04378
37.04342
37.04294
37.04233
37.04158
37.0407
37.03969
37.03861
37.03756
37.03686
37.03585
37.04053
37.04139
37.04216
37.04345
37.04468
37.04578
37.04672
37.0475
37.04814
37.04862
37.04897
37.04916
37.0492
37.04908
37.04881
37.0484
37.04784
37.04713
37.04627
37.04525
37.04407
37.04281
37.04168
37.04102
37.04653
37.04769
37.04959
37.05119
37.05255
37.05371
37.05468
37.05548
37.05609
37.05652
37.05677
37.05682
37.05667
37.05633
37.0558
37.0551
37.05422
37.05316
37.0519
37.05042
37.04867
37.04691
37.04604
37.05244
37.0546
37.05647
37.05808
37.05946
37.06063
37.06158
37.06233
37.06286
37.06316
37.06323
37.06304
37.06262
37.06198
37.06113
37.06007
37.0588
37.0573
37.05558
37.05352
37.05171
37.05835
37.06058
37.06248
37.0641
37.06546
37.06658
37.06747
37.06811
37.06849
37.06856
37.06834
37.06783
37.06706
37.06605
37.06481
37.06332
37.06156
37.05955
37.05715
37.06096
37.06355
37.06586
37.06773
37.06929
37.07059
37.07164
37.0724
37.07286
37.07295
37.07267
37.07206
37.07115
37.06998
37.06854
37.06684
37.06477
37.06232
37.06578
37.06828
37.07043
37.07223
37.07373
37.07494
37.07584
37.07639
37.0765
37.07617
37.07543
37.07437
37.07301
37.07137
37.0694
37.06695
37.06451
37.06985
37.07222
37.07429
37.07605
37.07748
37.07857
37.07921
37.07934
37.07895
37.07807
37.0768
37.07521
37.07329
37.07096
37.06838
37.0732
37.07547
37.0775
37.07931
37.08069
37.08142
37.08157
37.08113
37.08008
37.07842
37.07651
37.07428
37.07227
37.07648
37.07829
37.08065
37.08213
37.08293
37.08309
37.08261
37.08149
37.07928
37.07736
37.08132
37.0821
37.08301
37.08322
37.08262
37.08184
37.00142
37.00151
37.00151
37.00152
37.00154
37.00159
37.00162
37.00165
37.00167
37.00169
37.00171
37.00172
37.00173
37.00173
37.00174
37.00173
37.00173
37.00172
37.0017
37.00168
37.00166
37.00164
37.00161
37.00157
37.00153
37.00151
37.00152
37.00146
37.00163
37.00645
37.00708
37.00716
37.00725
37.0074
37.00762
37.00779
37.00793
37.00805
37.00815
37.00823
37.00829
37.00833
37.00836
37.00836
37.00835
37.00832
37.00826
37.00819
37.0081
37.008
37.00787
37.00771
37.00752
37.0073
37.0072
37.00712
37.00703
37.00578
37.01179
37.01208
37.01233
37.01256
37.01286
37.01326
37.01356
37.01382
37.01403
37.01421
37.01435
37.01446
37.01454
37.01458
37.01459
37.01456
37.0145
37.01441
37.01428
37.01412
37.01393
37.01369
37.01342
37.01308
37.01268
37.01245
37.01222
37.0119
37.01686
37.01687
37.01718
37.01753
37.01796
37.01851
37.01895
37.01932
37.01963
37.01988
37.02009
37.02025
37.02036
37.02043
37.02044
37.0204
37.02031
37.02018
37.01999
37.01976
37.01948
37.01914
37.01874
37.01826
37.0177
37.01735
37.01702
37.01677
37.02072
37.02129
37.02174
37.02219
37.02271
37.02341
37.02397
37.02446
37.02486
37.0252
37.02547
37.02568
37.02583
37.02591
37.02593
37.02588
37.02576
37.02559
37.02535
37.02504
37.02467
37.02423
37.0237
37.02308
37.0224
37.02197
37.02151
37.02105
37.02506
37.02548
37.02607
37.02656
37.02714
37.02797
37.02866
37.02926
37.02976
37.03018
37.03052
37.03078
37.03095
37.03106
37.03108
37.03101
37.03088
37.03066
37.03036
37.02998
37.02952
37.02897
37.02833
37.02757
37.02679
37.02632
37.02578
37.02521
37.02896
37.02959
37.03006
37.03059
37.03126
37.03222
37.03303
37.03374
37.03434
37.03484
37.03524
37.03555
37.03576
37.03588
37.0359
37.03583
37.03567
37.03541
37.03505
37.0346
37.03405
37.0334
37.03264
37.03177
37.03086
37.03033
37.0298
37.02919
37.03292
37.03366
37.03434
37.03511
37.03618
37.03711
37.03792
37.03862
37.03919
37.03966
37.04002
37.04026
37.0404
37.04043
37.04035
37.04015
37.03985
37.03944
37.03892
37.03828
37.03753
37.03666
37.03567
37.03465
37.03401
37.0333
37.03257
37.03637
37.03719
37.03786
37.03866
37.03984
37.04089
37.04182
37.04261
37.04326
37.04379
37.0442
37.04448
37.04464
37.04467
37.04458
37.04435
37.04401
37.04354
37.04295
37.04223
37.04137
37.04038
37.03927
37.03818
37.03753
37.03685
37.03614
37.04091
37.0414
37.04203
37.04288
37.04424
37.04547
37.04654
37.04745
37.04822
37.04883
37.0493
37.04964
37.04982
37.04986
37.04975
37.04949
37.04909
37.04854
37.04785
37.04702
37.04602
37.04487
37.04358
37.04236
37.04171
37.04107
37.04665
37.04763
37.04881
37.05061
37.05216
37.05349
37.05463
37.05557
37.05634
37.05694
37.05736
37.05759
37.05764
37.0575
37.05717
37.05666
37.05598
37.05512
37.05408
37.05285
37.05141
37.04974
37.04808
37.04714
37.04618
37.05229
37.05368
37.05577
37.05761
37.0592
37.06056
37.0617
37.06263
37.06335
37.06387
37.06416
37.06422
37.06404
37.06364
37.06302
37.06219
37.06116
37.05991
37.05844
37.05673
37.05474
37.05283
37.05179
37.05748
37.05972
37.06191
37.06379
37.06539
37.06673
37.06782
37.06869
37.0693
37.06965
37.06973
37.06951
37.06902
37.06828
37.0673
37.06609
37.06462
37.06288
37.06086
37.0585
37.05659
37.06247
37.06516
37.06736
37.06922
37.07076
37.07204
37.07305
37.07378
37.0742
37.07429
37.07403
37.07345
37.07258
37.07144
37.07003
37.06833
37.06631
37.06393
37.06112
37.06455
37.06763
37.07003
37.07214
37.07392
37.07539
37.07656
37.07742
37.07793
37.07803
37.07772
37.07703
37.07601
37.07469
37.07307
37.07113
37.06884
37.06632
37.06959
37.07193
37.07425
37.07625
37.07795
37.07932
37.08034
37.08093
37.08105
37.08069
37.07988
37.07868
37.07714
37.07529
37.07313
37.07061
37.06844
37.07354
37.07572
37.0779
37.0798
37.08141
37.08261
37.08329
37.08343
37.08302
37.08208
37.08064
37.07889
37.07682
37.07461
37.07159
37.07726
37.07933
37.08128
37.08295
37.08421
37.08499
37.08516
37.08466
37.08365
37.08213
37.08035
37.07838
37.08327
37.08408
37.08501
37.08609
37.08642
37.08552
37.08443
37.08365
37.08311
37.08782
37.08828
37.00153
37.00151
37.00154
37.00154
37.00155
37.00157
37.00161
37.00164
37.00167
37.00169
37.00171
37.00173
37.00174
37.00175
37.00175
37.00175
37.00175
37.00174
37.00173
37.00172
37.0017
37.00168
37.00166
37.00163
37.00159
37.00155
37.00154
37.00154
37.00153
37.00148
37.00638
37.00708
37.00725
37.00731
37.00739
37.00752
37.00772
37.00789
37.00803
37.00814
37.00824
37.00832
37.00838
37.00842
37.00844
37.00845
37.00843
37.0084
37.00835
37.00828
37.00819
37.00809
37.00796
37.00781
37.00763
37.00744
37.00735
37.00729
37.0072
37.00678
37.01181
37.01208
37.01238
37.0126
37.01281
37.01307
37.01344
37.01374
37.01399
37.01419
37.01437
37.01451
37.01461
37.01469
37.01473
37.01474
37.01471
37.01466
37.01457
37.01444
37.01429
37.0141
37.01387
37.0136
37.01326
37.01291
37.0127
37.0125
37.01225
37.01191
37.01688
37.01687
37.01719
37.01753
37.01786
37.01824
37.01878
37.01921
37.01956
37.01987
37.02012
37.02032
37.02047
37.02058
37.02064
37.02065
37.02062
37.02053
37.0204
37.02022
37.02
37.01972
37.01939
37.019
37.01853
37.01801
37.0177
37.01737
37.01702
37.01677
37.02066
37.02129
37.02174
37.02218
37.02259
37.02308
37.02376
37.02431
37.02478
37.02518
37.02551
37.02577
37.02597
37.02611
37.02619
37.02621
37.02616
37.02605
37.02588
37.02565
37.02535
37.02499
37.02456
37.02405
37.02344
37.02279
37.02239
37.02196
37.02151
37.02103
37.02496
37.02548
37.02604
37.02656
37.02703
37.02759
37.0284
37.02908
37.02966
37.03015
37.03056
37.03088
37.03113
37.03131
37.0314
37.03142
37.03136
37.03123
37.03102
37.03073
37.03036
37.02992
37.02938
37.02875
37.02802
37.02725
37.0268
37.02631
37.02577
37.02517
37.02959
37.03011
37.03064
37.03115
37.03179
37.03273
37.03353
37.03422
37.0348
37.03528
37.03567
37.03597
37.03618
37.03629
37.03632
37.03625
37.03609
37.03583
37.03549
37.03505
37.03452
37.03389
37.03314
37.03228
37.0314
37.03089
37.03037
37.02985
37.02927
37.03292
37.03371
37.03436
37.03496
37.03569
37.03676
37.03768
37.03847
37.03915
37.03971
37.04016
37.04051
37.04075
37.04088
37.04091
37.04083
37.04064
37.04035
37.03995
37.03944
37.03883
37.03809
37.03723
37.03624
37.03525
37.03467
37.03405
37.03334
37.03253
37.03637
37.03722
37.03788
37.03851
37.0393
37.04049
37.04154
37.04244
37.04321
37.04385
37.04436
37.04476
37.04503
37.04519
37.04522
37.04513
37.04491
37.04458
37.04412
37.04355
37.04284
37.04201
37.04103
37.03992
37.03882
37.0382
37.03756
37.03682
37.03583
37.04091
37.04149
37.04209
37.04275
37.04363
37.045
37.04621
37.04726
37.04816
37.0489
37.0495
37.04996
37.05028
37.05046
37.0505
37.05039
37.05014
37.04975
37.04922
37.04855
37.04773
37.04676
37.04563
37.04434
37.04309
37.04242
37.04178
37.0412
37.04679
37.04778
37.04869
37.04982
37.05157
37.05308
37.05439
37.0555
37.05643
37.05718
37.05776
37.05816
37.05839
37.05844
37.0583
37.05798
37.05749
37.05682
37.05598
37.05497
37.05376
37.05235
37.05072
37.04913
37.04824
37.0473
37.04624
37.05234
37.05346
37.05484
37.0569
37.05871
37.06027
37.06161
37.06273
37.06364
37.06434
37.06484
37.06512
37.06518
37.06501
37.06462
37.06402
37.06321
37.0622
37.06097
37.05952
37.05784
37.0559
37.05401
37.05289
37.05182
37.05722
37.05876
37.06105
37.06319
37.06504
37.06662
37.06794
37.06902
37.06985
37.07045
37.07078
37.07085
37.07065
37.07018
37.06946
37.06851
37.06731
37.06587
37.06415
37.06216
37.05991
37.05782
37.05657
37.06145
37.06411
37.06666
37.06882
37.07065
37.07217
37.07343
37.07441
37.07511
37.07551
37.07559
37.07535
37.07479
37.07395
37.07283
37.07145
37.06977
37.06778
37.06544
37.06266
37.06047
37.06639
37.06929
37.07171
37.07379
37.07554
37.07698
37.07812
37.07894
37.07941
37.07951
37.07922
37.07857
37.07759
37.0763
37.07471
37.0728
37.07054
37.06791
37.06479
37.06838
37.07108
37.07384
37.07617
37.07814
37.07978
37.08109
37.08204
37.08259
37.08271
37.08237
37.08161
37.08048
37.079
37.0772
37.07506
37.0725
37.06981
37.07171
37.0753
37.07794
37.08013
37.08194
37.08341
37.0845
37.08514
37.08527
37.08488
37.08401
37.08272
37.08108
37.07908
37.07674
37.07373
37.07728
37.07939
37.08186
37.0837
37.08517
37.08632
37.0871
37.08728
37.08676