/*--------------------------------*- C++ -*----------------------------------*\
| =========                 |                                                 |
| \\      /  F ield         | OpenFOAM: The Open Source CFD Toolbox           |
|  \\    /   O peration     | Version:  5.x                                   |
|   \\  /    A nd           | Web:      www.OpenFOAM.org                      |
|    \\/     M anipulation  |                                                 |
\*---------------------------------------------------------------------------*/
FoamFile
{
    version     2.0;
    format      ascii;
    class       volScalarField;
    location    "10/muscle";
    object      T;
}
// * * * * * * * * * * * * * * * * * * * * * * * * * * * * * * * * * * * * * //

dimensions      [0 0 0 1 0 0 0];

internalField   nonuniform List<scalar> 
45560
(
37.00267
37.00269
37.00277
37.01191
37.01199
37.01175
37.01982
37.02015
37.02709
37.00262
37.00267
37.00272
37.00273
37.0027
37.00261
37.00274
37.01187
37.01235
37.01266
37.01268
37.01256
37.01219
37.01999
37.021
37.02142
37.02156
37.02146
37.0207
37.02794
37.02872
37.02922
37.02937
37.02926
37.02903
37.03483
37.03557
37.03602
37.03616
37.03649
37.03644
37.04281
37.04358
37.04389
37.04366
37.04256
37.0515
37.05191
37.05117
37.00254
37.00281
37.00281
37.00286
37.00287
37.00286
37.00284
37.00273
37.00271
37.01164
37.01268
37.01303
37.01329
37.01336
37.01329
37.01304
37.01256
37.01173
37.02004
37.02129
37.0221
37.02252
37.02266
37.02255
37.02206
37.02164
37.01961
37.02763
37.02897
37.03007
37.03061
37.03083
37.03068
37.03016
37.02891
37.03425
37.03575
37.03704
37.03767
37.03794
37.03783
37.0373
37.03558
37.04085
37.04256
37.04427
37.0452
37.0456
37.04528
37.04435
37.04323
37.05044
37.05235
37.05369
37.05427
37.05368
37.05258
37.05747
37.05896
37.05967
37.05985
37.05827
37.0026
37.00275
37.00289
37.00293
37.00296
37.00298
37.00297
37.00296
37.0029
37.00273
37.01168
37.01275
37.0133
37.01359
37.0138
37.01388
37.01384
37.01368
37.01338
37.01302
37.01995
37.02155
37.02236
37.02297
37.02337
37.02353
37.02344
37.02309
37.02258
37.02127
37.02729
37.02891
37.03024
37.03121
37.03178
37.03201
37.03188
37.03137
37.03042
37.02907
37.03395
37.03549
37.03721
37.03842
37.03915
37.03945
37.03929
37.03868
37.03743
37.03589
37.04278
37.04451
37.04596
37.04691
37.04732
37.04709
37.04631
37.0451
37.04326
37.05049
37.05272
37.05471
37.05602
37.05657
37.05625
37.05522
37.05365
37.05146
37.05836
37.06066
37.06217
37.06283
37.06266
37.06129
37.05975
37.06432
37.06592
37.0668
37.0665
37.06514
37.00262
37.00269
37.00288
37.00297
37.00302
37.00305
37.00307
37.00306
37.00304
37.003
37.00289
37.00267
37.01151
37.01241
37.01329
37.01374
37.01403
37.01422
37.01431
37.01428
37.01415
37.0139
37.01337
37.01233
37.01885
37.02103
37.02231
37.02316
37.02374
37.02411
37.02428
37.02422
37.02393
37.02341
37.02246
37.0211
37.02853
37.03013
37.03138
37.03227
37.03284
37.03308
37.03298
37.03253
37.03171
37.03047
37.02883
37.03538
37.03707
37.03861
37.03977
37.04051
37.04082
37.0407
37.04013
37.03908
37.03768
37.03586
37.04195
37.04439
37.04625
37.04767
37.04861
37.04902
37.04887
37.04817
37.04696
37.04515
37.04325
37.04979
37.05267
37.05514
37.05702
37.0583
37.05887
37.05867
37.05776
37.05619
37.05359
37.0582
37.06122
37.06355
37.06516
37.06589
37.06569
37.06454
37.0626
37.05954
37.06159
37.06468
37.0675
37.06963
37.0706
37.07024
37.06861
37.06653
37.06935
37.07209
37.07309
37.07271
37.07124
37.00274
37.00264
37.00282
37.00295
37.00303
37.00309
37.00313
37.00314
37.00314
37.00312
37.00308
37.00299
37.00285
37.00265
37.01154
37.01252
37.01309
37.01369
37.01411
37.0144
37.0146
37.01469
37.01468
37.01455
37.01431
37.01388
37.01328
37.01217
37.01903
37.02048
37.02207
37.02307
37.02386
37.02442
37.02479
37.02497
37.02493
37.02468
37.0242
37.02344
37.02251
37.02081
37.02802
37.0298
37.03126
37.03242
37.03327
37.03382
37.03407
37.03401
37.03363
37.0329
37.03181
37.03032
37.02882
37.03495
37.03672
37.03849
37.03995
37.04106
37.04179
37.04212
37.04205
37.04155
37.04062
37.03928
37.03754
37.03678
37.04184
37.04381
37.04608
37.04791
37.04931
37.05025
37.05069
37.05059
37.04998
37.04883
37.04716
37.04497
37.05194
37.05496
37.0574
37.05925
37.06052
37.06113
37.06102
37.06022
37.05874
37.05649
37.05349
37.05758
37.06104
37.06406
37.06638
37.06803
37.06882
37.06869
37.06769
37.0659
37.06319
37.06071
37.06457
37.06824
37.07101
37.07315
37.07418
37.07396
37.07271
37.07056
37.06747
37.06641
37.0703
37.07342
37.07626
37.07754
37.07717
37.07557
37.07348
37.074
37.07799
37.07945
37.07901
37.07627
37.00278
37.00263
37.00278
37.00293
37.00302
37.0031
37.00315
37.00319
37.00321
37.00321
37.00319
37.00315
37.00308
37.00298
37.0028
37.00274
37.01167
37.01207
37.01287
37.01356
37.01406
37.01445
37.01475
37.01495
37.01505
37.01504
37.01493
37.01471
37.01436
37.01386
37.01301
37.01244
37.01949
37.02052
37.02164
37.02285
37.02377
37.0245
37.02505
37.02543
37.02561
37.0256
37.02538
37.02495
37.02429
37.02339
37.02221
37.02103
37.02662
37.02794
37.02927
37.03094
37.03229
37.03338
37.0342
37.03475
37.03501
37.03499
37.03466
37.03402
37.03304
37.03172
37.03017
37.0291
37.03468
37.03614
37.03808
37.03979
37.0412
37.04228
37.043
37.04336
37.04333
37.0429
37.04206
37.04082
37.03921
37.03743
37.03666
37.04154
37.04314
37.04553
37.0477
37.0495
37.05088
37.05182
37.05229
37.05225
37.05171
37.05066
37.04908
37.04706
37.04485
37.04379
37.05087
37.05416
37.05711
37.05952
37.06138
37.06266
37.06331
37.06328
37.06258
37.06119
37.05908
37.05622
37.05312
37.05562
37.06006
37.0637
37.06674
37.0691
37.07077
37.07162
37.0716
37.07072
37.069
37.06639
37.06288
37.06341
37.06761
37.07145
37.07436
37.07649
37.0776
37.07755
37.07647
37.07434
37.07108
37.0669
37.06944
37.07385
37.07745
37.08014
37.08154
37.08147
37.0801
37.07739
37.07374
37.07436
37.0784
37.0818
37.08351
37.08368
37.08162
37.07845
37.07865
37.08119
37.08313
37.08423
37.00278
37.00264
37.00272
37.00285
37.00299
37.00309
37.00316
37.00322
37.00326
37.00328
37.00328
37.00326
37.00322
37.00316
37.00306
37.00291
37.00282
37.00276
37.01167
37.0121
37.01261
37.01324
37.01391
37.01439
37.01477
37.01507
37.01527
37.01538
37.01539
37.01529
37.01508
37.01475
37.01428
37.01356
37.01305
37.01256
37.01948
37.02048
37.02143
37.02237
37.02351
37.02439
37.0251
37.02565
37.02603
37.02622
37.02623
37.02604
37.02565
37.02504
37.02419
37.02309
37.02225
37.02125
37.02663
37.02827
37.02923
37.03034
37.03192
37.03321
37.03426
37.03507
37.03562
37.03591
37.03592
37.03564
37.03505
37.03416
37.03292
37.03151
37.03068
37.02926
37.03468
37.03587
37.03732
37.03931
37.04099
37.04236
37.04343
37.04416
37.04454
37.04456
37.04419
37.04342
37.04225
37.04067
37.03888
37.03776
37.03706
37.04204
37.04302
37.0446
37.04707
37.04922
37.05099
37.05236
37.05332
37.05382
37.05384
37.05338
37.0524
37.0509
37.04892
37.04679
37.04575
37.04525
37.05059
37.05286
37.05622
37.05913
37.06154
37.0634
37.06471
37.06541
37.06546
37.06485
37.06355
37.06153
37.0588
37.05585
37.05427
37.05542
37.05829
37.06257
37.06625
37.0693
37.07169
37.07339
37.07432
37.07441
37.07365
37.07203
37.06951
37.06599
37.06238
37.06124
37.06643
37.07086
37.0746
37.07756
37.07971
37.08091
37.08103
37.08012
37.07817
37.07518
37.07099
37.06821
37.07325
37.07771
37.08131
37.08396
37.08546
37.08565
37.08457
37.08228
37.07882
37.07399
37.07897
37.0832
37.08629
37.08814
37.08852
37.08734
37.08473
37.08186
37.07992
37.08369
37.08647
37.08927
37.08955
37.08939
37.00274
37.00263
37.00272
37.00281
37.00292
37.00305
37.00314
37.00322
37.00328
37.00332
37.00334
37.00335
37.00333
37.00329
37.00323
37.00314
37.00301
37.00292
37.00283
37.00275
37.01154
37.01207
37.01261
37.01307
37.01358
37.01421
37.01469
37.01508
37.01538
37.01559
37.0157
37.01572
37.01563
37.01544
37.01512
37.01466
37.01405
37.01363
37.01314
37.01252
37.01903
37.02052
37.02143
37.02217
37.02299
37.02408
37.02496
37.02566
37.02621
37.02659
37.02681
37.02684
37.02667
37.02631
37.02573
37.02491
37.02391
37.02324
37.02244
37.02124
37.02794
37.02923
37.03016
37.03124
37.03278
37.03405
37.03508
37.03589
37.03645
37.03676
37.0368
37.03656
37.03603
37.03518
37.034
37.03264
37.0318
37.03078
37.02943
37.03468
37.03587
37.03705
37.03844
37.04042
37.04208
37.04345
37.04451
37.04526
37.04567
37.04573
37.04541
37.04471
37.0436
37.04206
37.04032
37.03924
37.03806
37.0373
37.04157
37.04302
37.04434
37.04598
37.04848
37.05062
37.05239
37.05377
37.05475
37.05529
37.05537
37.05497
37.05407
37.05263
37.05067
37.04853
37.0473
37.04597
37.05058
37.05247
37.05472
37.05812
37.06103
37.06344
37.06533
37.06667
37.06743
37.06757
37.06704
37.06583
37.06389
37.0612
37.05828
37.0565
37.0543
37.05542
37.05775
37.06061
37.06495
37.06866
37.07173
37.07416
37.07591
37.07692
37.07712
37.07648
37.07497
37.07253
37.06909
37.06535
37.06321
37.06052
37.0641
37.06925
37.07381
37.07759
37.08061
37.08282
37.08412
37.0844
37.08364
37.08184
37.0789
37.0747
37.06975
37.07114
37.07675
37.0813
37.08496
37.08768
37.08931
37.0897
37.08885
37.08676
37.08328
37.07841
37.07085
37.07741
37.08309
37.08743
37.09069
37.09272
37.09327
37.09238
37.09005
37.0859
37.07643
37.08335
37.08811
37.09198
37.09462
37.09516
37.09419
37.09212
37.08701
37.09201
37.09547
37.09547
37.00262
37.00264
37.00278
37.00285
37.00292
37.003
37.00312
37.00321
37.00329
37.00335
37.0034
37.00342
37.00343
37.00341
37.00338
37.00332
37.00323
37.00313
37.00307
37.003
37.00291
37.0027
37.01151
37.01252
37.01287
37.01324
37.01358
37.01399
37.01458
37.01506
37.01545
37.01576
37.01598
37.0161
37.01614
37.01606
37.01588
37.01558
37.01514
37.01463
37.01431
37.01397
37.0136
37.0125
37.01885
37.02048
37.02164
37.02237
37.02299
37.02371
37.02477
37.02563
37.02634
37.0269
37.0273
37.02754
37.0276
37.02746
37.02713
37.02658
37.02579
37.02488
37.02432
37.02367
37.02281
37.02158
37.02803
37.02928
37.03034
37.03124
37.03228
37.03379
37.03505
37.03609
37.0369
37.03749
37.03783
37.03791
37.03772
37.03724
37.03644
37.0353
37.03399
37.03318
37.03222
37.03105
37.03001
37.03495
37.03614
37.03732
37.03844
37.03978
37.04175
37.04341
37.04477
37.04585
37.04663
37.04708
37.0472
37.04695
37.04631
37.04525
37.04376
37.04207
37.04103
37.0399
37.03868
37.03802
37.04186
37.04314
37.0446
37.04598
37.04766
37.05019
37.05234
37.05412
37.05552
37.05653
37.05714
37.05729
37.05698
37.05615
37.05479
37.05286
37.05071
37.04943
37.04801
37.0465
37.05087
37.05286
37.05472
37.05699
37.06042
37.06335
37.06579
37.06772
37.06913
37.06998
37.07022
37.06981
37.0687
37.06685
37.06422
37.06128
37.05954
37.05763
37.05571
37.05562
37.05829
37.06061
37.06351
37.06787
37.07161
37.07474
37.07724
37.07908
37.08021
37.08055
37.08006
37.07867
37.07633
37.07298
37.06922
37.067
37.06455
37.06123
37.0641
37.06752
37.07279
37.07741
37.08129
37.08441
37.08674
37.08819
37.08866
37.0881
37.08645
37.0836
37.0795
37.0749
37.07236
37.06967
37.07538
37.08099
37.08571
37.08952
37.09241
37.09424
37.09487
37.09427
37.09234
37.08895
37.08402
37.07927
37.0761
37.0825
37.08822
37.09279
37.09631
37.0986
37.09943
37.09882
37.09663
37.09272
37.08704
37.08238
37.08905
37.09436
37.09863
37.10153
37.10246
37.10193
37.09965
37.09523
37.089
37.09463
37.09961
37.10357
37.10381
37.10453
37.10336
37.09901
37.10662
37.0026
37.00269
37.00282
37.00293
37.00299
37.00305
37.00312
37.00323
37.00333
37.00341
37.00347
37.00352
37.00355
37.00356
37.00355
37.00352
37.00347
37.00338
37.00329
37.00324
37.00318
37.0031
37.00297
37.00279
37.00295
37.01168
37.01241
37.01309
37.01356
37.01391
37.01421
37.01458
37.01514
37.01563
37.01603
37.01635
37.0166
37.01675
37.01681
37.01676
37.0166
37.01632
37.01591
37.01545
37.01517
37.01486
37.01447
37.01384
37.01308
37.0117
37.01995
37.02103
37.02207
37.02285
37.02351
37.02408
37.02477
37.02579
37.02667
37.0274
37.02799
37.02843
37.0287
37.02881
37.02873
37.02844
37.02793
37.02718
37.02633
37.02581
37.02521
37.0245
37.02359
37.02236
37.02729
37.02853
37.0298
37.03094
37.03192
37.03278
37.03379
37.03529
37.03656
37.03762
37.03848
37.03912
37.03953
37.03969
37.03957
37.03915
37.03841
37.03732
37.03607
37.0353
37.03439
37.03331
37.03205
37.03066
37.03395
37.03538
37.03672
37.03808
37.03931
37.04042
37.04175
37.04372
37.0454
37.0468
37.04794
37.04879
37.04933
37.04954
37.04939
37.04884
37.04787
37.04644
37.04479
37.04377
37.04261
37.04129
37.03985
37.03811
37.04195
37.04381
37.04553
37.04707
37.04848
37.05019
37.05275
37.05493
37.05676
37.05824
37.05935
37.06007
37.06036
37.06017
37.05947
37.05821
37.05635
37.05422
37.05291
37.05145
37.04979
37.04792
37.04615
37.04979
37.05194
37.05416
37.05622
37.05811
37.06042
37.0639
37.06689
37.06942
37.07147
37.07302
37.07404
37.07446
37.07424
37.0733
37.07159
37.06906
37.06614
37.06436
37.06239
37.06022
37.05797
37.05758
37.06006
37.06257
37.06495
37.06787
37.07229
37.07613
37.0794
37.08207
37.08412
37.08548
37.08608
37.08583
37.08466
37.08249
37.07927
37.07556
37.0733
37.07082
37.06808
37.06567
37.06341
37.06643
37.06925
37.07279
37.0782
37.08296
37.08704
37.09042
37.09304
37.0948
37.0956
37.09536
37.09395
37.0913
37.08736
37.08284
37.0801
37.07707
37.07329
37.06821
37.07114
37.07538
37.08183
37.08761
37.09264
37.09681
37.10008
37.10231
37.10339
37.10317
37.10153
37.09833
37.09358
37.08831
37.08516
37.08246
37.07085
37.0761
37.08338
37.09025
37.0964
37.10148
37.1055
37.10831
37.10971
37.10957
37.10768
37.10379
37.09802
37.09271
37.08284
37.09094
37.09854
37.1046
37.1095
37.11302
37.11476
37.11479
37.11266
37.10753
37.10038
37.09017
37.09931
37.10625
37.1122
37.1166
37.11867
37.11895
37.11682
37.11035
37.09978
37.10629
37.11346
37.11868
37.12113
37.12209
37.12316
37.10612
37.11342
37.11886
37.12209
37.12374
37.00254
37.00275
37.00287
37.00295
37.00302
37.00309
37.00314
37.00321
37.00333
37.00343
37.00351
37.00358
37.00363
37.00367
37.00368
37.00368
37.00365
37.0036
37.00352
37.00343
37.00338
37.00333
37.00326
37.00318
37.00309
37.00289
37.00292
37.01164
37.01275
37.01329
37.01369
37.01406
37.01439
37.01469
37.01506
37.01563
37.01612
37.01654
37.01689
37.01715
37.01734
37.01742
37.0174
37.01726
37.017
37.01661
37.01616
37.01589
37.01558
37.01523
37.01483
37.01439
37.01347
37.01242
37.02004
37.02155
37.02231
37.02307
37.02377
37.02439
37.02496
37.02563
37.02667
37.02757
37.02833
37.02896
37.02944
37.02977
37.02992
37.02989
37.02964
37.02917
37.02845
37.02762
37.02711
37.02653
37.02587
37.02511
37.02431
37.02355
37.02131
37.02763
37.02891
37.03013
37.03126
37.03229
37.03321
37.03405
37.03505
37.03656
37.03787
37.03898
37.03989
37.0406
37.04108
37.04131
37.04126
37.04091
37.04022
37.03917
37.03795
37.0372
37.03633
37.03534
37.03422
37.03298
37.03158
37.03425
37.03549
37.03707
37.03849
37.03979
37.04099
37.04208
37.04341
37.0454
37.04712
37.04859
37.0498
37.05074
37.05138
37.05169
37.05164
37.05117
37.05027
37.04889
37.04728
37.04628
37.04515
37.04388
37.04247
37.04088
37.03926
37.04085
37.04278
37.04439
37.04608
37.0477
37.04922
37.05062
37.05234
37.05493
37.05717
37.05909
37.06068
37.06191
37.06276
37.06318
37.06312
37.06254
37.06137
37.05958
37.05747
37.05618
37.05474
37.05313
37.0514
37.04965
37.04788
37.05049
37.05267
37.05496
37.05711
37.05913
37.06103
37.06335
37.06689
37.06998
37.07263
37.07484
37.07658
37.07778
37.0784
37.07835
37.07758
37.076
37.07356
37.07069
37.06892
37.06697
37.06481
37.06241
37.05981
37.05714
37.05819
37.06104
37.0637
37.06625
37.06866
37.07161
37.07613
37.08011
37.08356
37.08646
37.08876
37.09039
37.09125
37.09125
37.09029
37.0883
37.0852
37.08154
37.07928
37.07677
37.07402
37.07102
37.06777
37.06159
37.06457
37.06761
37.07086
37.07381
37.07741
37.08296
37.0879
37.09224
37.09593
37.09889
37.10101
37.10218
37.10226
37.10114
37.09871
37.09493
37.09047
37.08771
37.0845
37.08082
37.07772
37.06641
37.06944
37.07325
37.07675
37.08099
37.08761
37.09362
37.09898
37.10358
37.10731
37.11003
37.11158
37.11179
37.11051
37.10763
37.10314
37.09789
37.09467
37.09075
37.08629
37.07399
37.07741
37.0825
37.09025
37.09748
37.10402
37.10967
37.11432
37.11776
37.11978
37.12019
37.11877
37.11538
37.1101
37.10407
37.10048
37.09641
37.07643
37.08238
37.09094
37.09962
37.10753
37.11441
37.12012
37.12444
37.12707
37.12774
37.12619
37.12222
37.11583
37.10926
37.09016
37.10028
37.10957
37.11794
37.12489
37.13025
37.13366
37.13472
37.13292
37.12844
37.12003
37.09984
37.10955
37.12024
37.12832
37.13468
37.13914
37.14069
37.13725
37.13514
37.10786
37.12168
37.13018
37.13714
37.14258
37.14502
37.13564
37.1247
37.1323
37.1399
37.14666
37.15179
37.00262
37.00281
37.00289
37.00297
37.00303
37.0031
37.00316
37.00322
37.00329
37.00341
37.00351
37.0036
37.00367
37.00373
37.00377
37.0038
37.0038
37.00377
37.00372
37.00365
37.00356
37.00351
37.00345
37.00339
37.00332
37.00324
37.00316
37.00301
37.01187
37.01268
37.0133
37.01374
37.01411
37.01445
37.01477
37.01508
37.01545
37.01603
37.01654
37.01699
37.01736
37.01765
37.01786
37.01798
37.01798
37.01787
37.01762
37.01724
37.01679
37.01652
37.01622
37.01589
37.01552
37.0151
37.01453
37.01366
37.01999
37.02129
37.02236
37.02316
37.02386
37.0245
37.0251
37.02566
37.02634
37.0274
37.02833
37.02913
37.02981
37.03034
37.03073
37.03093
37.03094
37.03074
37.03029
37.0296
37.02878
37.02828
37.02771
37.02708
37.02639
37.0256
37.02461
37.02311
37.02794
37.02897
37.03024
37.03138
37.03242
37.03338
37.03426
37.03508
37.03609
37.03762
37.03898
37.04015
37.04113
37.04192
37.04248
37.04279
37.04281
37.04251
37.04187
37.04085
37.03965
37.03891
37.03808
37.03714
37.0361
37.03494
37.03361
37.03214
37.03483
37.03575
37.03721
37.03861
37.03995
37.0412
37.04236
37.04345
37.04477
37.0468
37.04859
37.05014
37.05144
37.05249
37.05324
37.05365
37.05369
37.0533
37.05246
37.05113
37.04953
37.04856
37.04746
37.04623
37.04487
37.0434
37.04184
37.04018
37.04256
37.04451
37.04625
37.04791
37.0495
37.05099
37.05239
37.05411
37.05676
37.05909
37.06112
37.06283
37.06421
37.0652
37.06576
37.06582
37.06534
37.06426
37.06252
37.06045
37.05917
37.05775
37.05617
37.05446
37.05264
37.05065
37.04873
37.05044
37.05272
37.05514
37.0574
37.05952
37.06153
37.06344
37.06579
37.06942
37.07263
37.07544
37.07784
37.07979
37.08121
37.08202
37.08216
37.08153
37.08007
37.07771
37.07486
37.07311
37.07116
37.06902
37.06668
37.06412
37.06137
37.05836
37.06122
37.06406
37.06674
37.0693
37.07173
37.07474
37.0794
37.08356
37.08724
37.09041
37.093
37.09492
37.09606
37.09631
37.09557
37.09373
37.09072
37.08707
37.08481
37.08229
37.07951
37.07647
37.07301
37.06982
37.06468
37.06824
37.07145
37.0746
37.07759
37.08128
37.08704
37.09224
37.0969
37.10095
37.10431
37.10684
37.10838
37.1088
37.10796
37.10575
37.10207
37.09759
37.09478
37.09162
37.08815
37.08442
37.07978
37.0703
37.07385
37.07771
37.0813
37.08571
37.09264
37.09898
37.10475
37.10984
37.11412
37.11738
37.11944
37.1201
37.11921
37.11663
37.11227
37.10692
37.10353
37.09958
37.09513
37.09125
37.07436
37.07897
37.08309
37.08822
37.0964
37.10402
37.11106
37.11738
37.12277
37.12694
37.12965
37.13063
37.12972
37.12681
37.12181
37.11568
37.11176
37.10681
37.1009
37.07992
37.08335
37.08905
37.09854
37.10753
37.11602
37.1238
37.13053
37.13584
37.13935
37.14075
37.13987
37.13674
37.13122
37.1243
37.12119
37.089
37.09931
37.10956
37.11976
37.12927
37.13763
37.14433
37.14885
37.15084
37.14996
37.14677
37.14057
37.09977
37.10948
37.12217
37.13329
37.14338
37.15156
37.1572
37.16011
37.15902
37.15465
37.10765
37.12366
37.13525
37.14653
37.15572
37.16204
37.16612
37.16559
37.15427
37.12579
37.1363
37.14906
37.15925
37.16594
37.17226
37.17656
37.13526
37.14999
37.16068
37.16705
37.17725
37.00267
37.00281
37.00293
37.00302
37.00309
37.00315
37.00322
37.00328
37.00335
37.00347
37.00358
37.00367
37.00375
37.00382
37.00387
37.00389
37.0039
37.00388
37.00383
37.00376
37.00367
37.00362
37.00356
37.00349
37.00342
37.00334
37.00323
37.00309
37.003
37.01235
37.01303
37.01359
37.01403
37.0144
37.01475
37.01507
37.01538
37.01576
37.01635
37.01689
37.01736
37.01776
37.01809
37.01833
37.01847
37.0185
37.0184
37.01817
37.01779
37.01734
37.01707
37.01677
37.01644
37.01607
37.01564
37.01512
37.01444
37.01375
37.021
37.0221
37.02297
37.02374
37.02442
37.02505
37.02565
37.02621
37.0269
37.02799
37.02896
37.02981
37.03054
37.03113
37.03157
37.03183
37.03188
37.03171
37.03129
37.0306
37.02979
37.02929
37.02873
37.02812
37.02743
37.02667
37.02579
37.02478
37.02332
37.02872
37.03006
37.03121
37.03227
37.03327
37.03419
37.03507
37.03589
37.0369
37.03848
37.03989
37.04113
37.0422
37.04307
37.04371
37.04409
37.04418
37.04394
37.04333
37.04233
37.04114
37.04041
37.03959
37.03868
37.03767
37.03657
37.03536
37.03406
37.03257
37.03557
37.03704
37.03842
37.03977
37.04106
37.04228
37.04343
37.04451
37.04585
37.04794
37.0498
37.05144
37.05286
37.05401
37.05487
37.05539
37.05552
37.0552
37.05441
37.0531
37.05152
37.05055
37.04947
37.04826
37.04694
37.04551
37.04398
37.04235
37.04123
37.04281
37.04427
37.04596
37.04767
37.04931
37.05088
37.05236
37.05377
37.05552
37.05824
37.06068
37.06283
37.06469
37.06622
37.06736
37.06806
37.06825
37.06786
37.06684
37.06514
37.06308
37.0618
37.06039
37.05883
37.05712
37.05528
37.05333
37.05136
37.05235
37.05471
37.05702
37.05925
37.06138
37.0634
37.06533
37.06772
37.07147
37.07484
37.07784
37.08046
37.08263
37.08427
37.08529
37.0856
37.08511
37.08375
37.08143
37.07859
37.07683
37.07488
37.07273
37.07039
37.06787
37.06524
37.06281
37.05747
37.06066
37.06355
37.06638
37.0691
37.07169
37.07416
37.07724
37.08207
37.08646
37.09041
37.09388
37.09679
37.09902
37.10045
37.10095
37.1004
37.09869
37.09573
37.09208
37.0898
37.08726
37.08445
37.08139
37.07818
37.07488
37.06432
37.0675
37.07101
37.07436
37.07756
37.08061
37.08441
37.09042
37.09593
37.10095
37.10542
37.10922
37.11218
37.11412
37.11488
37.1143
37.11226
37.10863
37.10411
37.10128
37.09808
37.0945
37.09052
37.08615
37.0824
37.06935
37.07342
37.07745
37.0813
37.08496
37.08952
37.09681
37.10358
37.10984
37.1155
37.12038
37.12424
37.12683
37.12795
37.1274
37.12502
37.12069
37.11524
37.11181
37.1079
37.10346
37.09852
37.09367
37.074
37.0784
37.0832
37.08743
37.09279
37.10148
37.10967
37.11738
37.12448
37.13069
37.13568
37.1391
37.14068
37.14021
37.13752
37.13245
37.12602
37.12202
37.11739
37.11145
37.07865
37.08369
37.08811
37.09436
37.1046
37.11441
37.1238
37.13264
37.14054
37.14696
37.15142
37.15357
37.15326
37.1503
37.14437
37.1367
37.13219
37.12826
37.08701
37.09463
37.10625
37.11794
37.12927
37.14025
37.15032
37.15857
37.16428
37.16711
37.16713
37.16389
37.15685
37.14845
37.10629
37.12024
37.13329
37.14659
37.1593
37.16967
37.17664
37.17987
37.18075
37.17702
37.16782
37.10612
37.1217
37.13524
37.15022
37.16517
37.17712
37.18487
37.18774
37.19
37.18523
37.12474
37.13629
37.15341
37.17166
37.18552
37.19411
37.19479
37.19958
37.13526
37.15537
37.17917
37.19527
37.20572
37.19857
37.18732
37.20658
37.2227
37.00267
37.00272
37.00286
37.00296
37.00305
37.00313
37.00319
37.00326
37.00332
37.0034
37.00352
37.00363
37.00373
37.00382
37.00389
37.00394
37.00398
37.00399
37.00397
37.00393
37.00385
37.00376
37.00371
37.00365
37.00358
37.00351
37.00342
37.00332
37.00319
37.00305
37.01191
37.01266
37.01329
37.0138
37.01422
37.0146
37.01495
37.01527
37.01559
37.01598
37.0166
37.01715
37.01765
37.01809
37.01845
37.01872
37.01889
37.01894
37.01886
37.01863
37.01825
37.0178
37.01753
37.01722
37.01689
37.01652
37.0161
37.01561
37.015
37.01419
37.01982
37.02142
37.02252
37.02337
37.02411
37.02479
37.02543
37.02603
37.02659
37.0273
37.02843
37.02944
37.03034
37.03113
37.03178
37.03227
37.03258
37.03268
37.03254
37.03213
37.03145
37.03063
37.03013
37.02957
37.02895
37.02828
37.02753
37.02668
37.02567
37.02408
37.02922
37.03061
37.03178
37.03284
37.03382
37.03475
37.03562
37.03645
37.03749
37.03912
37.0406
37.04192
37.04307
37.04402
37.04474
37.0452
37.04535
37.04515
37.04457
37.04358
37.04237
37.04164
37.04082
37.03991
37.03892
37.03784
37.03664
37.03528
37.03367
37.03602
37.03767
37.03915
37.04051
37.04179
37.043
37.04416
37.04526
37.04663
37.04879
37.05074
37.05249
37.05401
37.05528
37.05625
37.05687
37.05708
37.05683
37.05607
37.05476
37.05318
37.0522
37.05111
37.04991
37.0486
37.04718
37.04564
37.04394
37.04241
37.04358
37.0452
37.04691
37.04861
37.05025
37.05182
37.05332
37.05475
37.05653
37.05935
37.06191
37.06421
37.06622
37.0679
37.06919
37.07002
37.07032
37.07002
37.06904
37.06735
37.06528
37.064
37.06258
37.06101
37.0593
37.05747
37.05557
37.0537
37.05194
37.0515
37.05369
37.05602
37.0583
37.06052
37.06266
37.06471
37.06667
37.06913
37.07302
37.07658
37.07979
37.08263
37.08502
37.08689
37.08811
37.08859
37.08822
37.08692
37.08461
37.08175
37.07998
37.07801
37.07584
37.07348
37.07095
37.06829
37.06552
37.05896
37.06217
37.06516
37.06803
37.07077
37.07339
37.07591
37.07908
37.08412
37.08876
37.093
37.09679
37.10003
37.10258
37.1043
37.10503
37.10464
37.10302
37.10008
37.09639
37.0941
37.09154
37.08872
37.08563
37.08229
37.07865
37.07489
37.06592
37.06963
37.07315
37.07649
37.07971
37.08282
37.08674
37.09303
37.09889
37.10431
37.10922
37.11347
37.11687
37.11921
37.1203
37.11995
37.11803
37.11442
37.10986
37.10701
37.10382
37.10031
37.09644
37.09219
37.08782
37.07209
37.07626
37.08014
37.08396
37.08768
37.09241
37.10007
37.10731
37.11412
37.12038
37.12588
37.13035
37.1335
37.13506
37.13482
37.1326
37.12828
37.12276
37.11932
37.1155
37.11136
37.10686
37.10101
37.07799
37.0818
37.08629
37.09069
37.09631
37.1055
37.11432
37.12276
37.13069
37.13777
37.14361
37.14778
37.14995
37.14988
37.14737
37.14229
37.13568
37.13151
37.12697
37.12257
37.11994
37.08119
37.08647
37.09198
37.09863
37.1095
37.12012
37.13053
37.14054
37.14965
37.15724
37.16272
37.16565
37.16582
37.16302
37.15708
37.14917
37.14383
37.13754
37.09201
37.09961
37.1122
37.12489
37.13763
37.15032
37.16206
37.17193
37.17908
37.18289
37.18336
37.18027
37.17324
37.16383
37.15867
37.09901
37.11346
37.12832
37.14338
37.1593
37.17406
37.18653
37.19561
37.20021
37.20093
37.19752
37.1903
37.11342
37.13019
37.14652
37.16517
37.18205
37.19642
37.207
37.21205
37.21279
37.20911
37.1323
37.14906
37.17166
37.19074
37.20727
37.21976
37.22545
37.22591
37.22248
37.14999
37.17917
37.20032
37.21924
37.23415
37.24179
37.23844
37.18732
37.21229
37.23318
37.25036
37.26411
37.00269
37.00273
37.00287
37.00298
37.00307
37.00314
37.00321
37.00328
37.00334
37.00342
37.00355
37.00367
37.00377
37.00387
37.00394
37.004
37.00404
37.00405
37.00404
37.004
37.00392
37.00383
37.00377
37.00371
37.00364
37.00357
37.00349
37.00338
37.00324
37.0031
37.012
37.01269
37.01336
37.01388
37.01431
37.01469
37.01505
37.01538
37.0157
37.0161
37.01675
37.01734
37.01786
37.01833
37.01872
37.01902
37.01921
37.01928
37.01921
37.01899
37.01861
37.01815
37.01786
37.01755
37.01721
37.01683
37.01641
37.01591
37.01526
37.01444
37.02015
37.02156
37.02266
37.02353
37.02428
37.02497
37.02561
37.02622
37.02681
37.02754
37.0287
37.02977
37.03073
37.03157
37.03227
37.03282
37.03317
37.0333
37.03318
37.03279
37.0321
37.03125
37.03074
37.03017
37.02954
37.02885
37.0281
37.02724
37.0262
37.02473
37.02709
37.02938
37.03083
37.03201
37.03308
37.03407
37.03501
37.03591
37.03676
37.03783
37.03953
37.04108
37.04248
37.04371
37.04474
37.04554
37.04607
37.04627
37.0461
37.04553
37.04453
37.0433
37.04255
37.04171
37.04078
37.03978
37.03868
37.03747
37.0361
37.03396
37.03616
37.03794
37.03945
37.04082
37.04212
37.04336
37.04454
37.04567
37.04708
37.04933
37.05138
37.05324
37.05487
37.05625
37.05732
37.05803
37.05831
37.05811
37.05736
37.05605
37.05442
37.05342
37.05231
37.05108
37.04974
37.0483
37.04675
37.04499
37.04325
37.04389
37.0456
37.04732
37.04902
37.05069
37.05229
37.05382
37.05529
37.05713
37.06007
37.06276
37.0652
37.06736
37.06919
37.07063
37.07158
37.07198
37.07174
37.07078
37.06907
37.06694
37.06563
37.06417
37.06257
37.06082
37.05897
37.05709
37.05531
37.05334
37.05191
37.05427
37.05657
37.05887
37.06113
37.06331
37.06541
37.06743
37.06998
37.07404
37.07778
37.08121
37.08427
37.08689
37.08897
37.09038
37.091
37.09072
37.08945
37.08711
37.08418
37.08236
37.08033
37.0781
37.07567
37.07309
37.07041
37.0676
37.05967
37.06283
37.06589
37.06882
37.07162
37.07432
37.07692
37.08021
37.08548
37.09039
37.09492
37.09902
37.10258
37.10544
37.10742
37.10836
37.10811
37.10654
37.10356
37.09977
37.0974
37.09477
37.09187
37.0887
37.08524
37.08151
37.07806
37.0668
37.0706
37.07418
37.0776
37.08091
37.08412
37.08819
37.09479
37.10101
37.10683
37.11218
37.11687
37.1207
37.12342
37.1248
37.12466
37.12281
37.11915
37.11444
37.1115
37.10823
37.10464
37.10075
37.09665
37.09225
37.07309
37.07754
37.08154
37.08545
37.08931
37.09424
37.10231
37.11003
37.11738
37.12424
37.13035
37.13541
37.13909
37.14108
37.14112
37.13901
37.13463
37.12894
37.12537
37.12144
37.1172
37.1125
37.10616
37.07945
37.08351
37.08814
37.09272
37.0986
37.10831
37.11776
37.12694
37.13568
37.14361
37.15027
37.15519
37.15795
37.15827
37.15592
37.15081
37.14405
37.13977
37.13499
37.13045
37.1273
37.08313
37.08927
37.09462
37.10153
37.11302
37.12444
37.13584
37.14696
37.15724
37.16598
37.17251
37.17626
37.17694
37.1744
37.16865
37.16104
37.1561
37.1494
37.09546
37.10357
37.1166
37.13024
37.14433
37.15857
37.17193
37.18341
37.19204
37.19698
37.19809
37.19537
37.18963
37.18212
37.18029
37.10661
37.11867
37.13468
37.15156
37.16966
37.18653
37.20116
37.21234
37.21846
37.21975
37.21667
37.21389
37.11886
37.13713
37.15572
37.17712
37.19642
37.21337
37.22657
37.23351
37.23459
37.23077
37.22752
37.1399
37.15925
37.18552
37.20727
37.22688
37.24269
37.25087
37.25154
37.24786
37.16068
37.19527
37.21924
37.24191
37.26108
37.2719
37.26791
37.20658
37.23318
37.25885
37.28346
37.2996
37.00277
37.0027
37.00286
37.00297
37.00306
37.00314
37.00321
37.00328
37.00335
37.00343
37.00356
37.00368
37.0038
37.00389
37.00398
37.00404
37.00408
37.0041
37.00409
37.00404
37.00397
37.00387
37.00381
37.00375
37.00368
37.0036
37.00352
37.0034
37.00326
37.00307
37.01175
37.01256
37.01329
37.01384
37.01428
37.01468
37.01504
37.01539
37.01572
37.01614
37.01681
37.01742
37.01798
37.01847
37.01889
37.01921
37.01942
37.01951
37.01945
37.01922
37.01883
37.01835
37.01806
37.01774
37.01738
37.01699
37.01654
37.01601
37.01532
37.01428
37.02146
37.02255
37.02344
37.02422
37.02493
37.0256
37.02623
37.02684
37.0276
37.02881
37.02992
37.03093
37.03183
37.03258
37.03317
37.03356
37.03372