/*--------------------------------*- C++ -*----------------------------------*\
| =========                 |                                                 |
| \\      /  F ield         | OpenFOAM: The Open Source CFD Toolbox           |
|  \\    /   O peration     | Version:  5.x                                   |
|   \\  /    A nd           | Web:      www.OpenFOAM.org                      |
|    \\/     M anipulation  |                                                 |
\*---------------------------------------------------------------------------*/
FoamFile
{
    version     2.0;
    format      ascii;
    class       volScalarField;
    location    "40/gland";
    object      T;
}
// * * * * * * * * * * * * * * * * * * * * * * * * * * * * * * * * * * * * * //

dimensions      [0 0 0 1 0 0 0];

internalField   nonuniform List<scalar> 
202400
(
36.66519
36.73257
36.73228
36.71915
36.15209
36.19267
36.19068
36.17862
35.87226
35.86664
35.85406
35.64479
35.63537
35.6322
35.4588
35.47626
36.76433
36.84088
36.87295
36.88576
36.8878
36.88017
36.86097
36.806
36.67142
36.17997
36.34472
36.4424
36.48123
36.4895
36.45913
36.40943
36.28259
35.84731
35.98444
36.12982
36.1701
36.18005
36.14726
36.0807
35.95914
35.60824
35.74491
35.89043
35.92598
35.93688
35.9112
35.83739
35.71547
35.45653
35.56891
35.68797
35.73043
35.73717
35.71972
35.63188
35.53269
35.30301
35.42017
35.51363
35.57047
35.57673
35.5517
35.44513
35.35924
35.27443
35.33771
35.42558
35.43383
35.39817
35.31237
35.1905
35.14306
35.21504
35.28721
35.29626
35.23808
35.1889
35.09585
35.0256
35.10255
35.13835
35.14124
35.11953
35.07822
34.97951
35.04678
35.04509
35.02897
34.9635
36.82054
36.87923
36.90741
36.9201
36.92517
36.9263
36.92289
36.91535
36.8969
36.8647
36.71326
36.31893
36.46923
36.56115
36.61531
36.63679
36.64169
36.62703
36.59455
36.52497
36.42534
36.19465
35.98958
36.16444
36.27865
36.355
36.3838
36.39006
36.37181
36.32385
36.23413
36.10756
35.87777
35.74678
35.92581
36.05345
36.13762
36.16918
36.17528
36.15779
36.10138
36.00332
35.85842
35.65317
35.55674
35.7316
35.86438
35.95074
35.98843
35.99395
35.97581
35.91104
35.80799
35.62723
35.46696
35.4032
35.57014
35.7019
35.78863
35.83521
35.84242
35.81813
35.74867
35.63426
35.46486
35.30968
35.24166
35.42991
35.55778
35.64493
35.69752
35.70699
35.67605
35.60822
35.49231
35.32709
35.12633
35.26816
35.4213
35.51853
35.56738
35.57687
35.54569
35.47982
35.3636
35.20621
35.01312
35.14602
35.30196
35.40164
35.44848
35.45551
35.42887
35.35839
35.23973
35.09111
35.04552
35.14555
35.25876
35.31273
35.3202
35.28721
35.2169
35.09077
34.96223
34.94127
35.01838
35.09311
35.10043
35.04592
34.9799
34.84578
34.80734
34.88525
34.88931
34.83758
34.77609
36.69387
36.84689
36.90263
36.92303
36.9353
36.94235
36.94543
36.94605
36.94419
36.93947
36.93005
36.9154
36.88132
36.81123
36.15344
36.35896
36.54661
36.63247
36.68425
36.7161
36.73018
36.73299
36.72458
36.70286
36.66174
36.59924
36.47021
36.28595
36.02401
36.25822
36.38245
36.45932
36.50819
36.52984
36.53396
36.52151
36.48744
36.42584
36.33209
36.15962
35.90288
35.784
36.02599
36.16917
36.26339
36.3232
36.35016
36.35497
36.34011
36.29736
36.2222
36.10724
35.9223
35.65346
35.60416
35.8353
35.98615
36.09171
36.15921
36.19157
36.19713
36.17952
36.12961
36.04462
35.91606
35.73326
35.47709
35.45261
35.66947
35.82937
35.94099
36.01374
36.05148
36.05828
36.03694
35.98177
35.88973
35.75504
35.56963
35.35372
35.31002
35.51907
35.69022
35.80658
35.88323
35.92453
35.93245
35.90803
35.8499
35.75321
35.61253
35.39477
35.2119
35.15824
35.39034
35.56086
35.68328
35.7644
35.80668
35.81484
35.78962
35.72937
35.62817
35.48371
35.26946
35.05264
35.26594
35.44238
35.56909
35.65432
35.69772
35.70565
35.68037
35.61711
35.51183
35.3595
35.15602
34.95256
35.12693
35.30263
35.42996
35.52002
35.56596
35.57429
35.54728
35.48046
35.37231
35.22729
35.05642
34.90427
35.06711
35.20732
35.30468
35.3537
35.36353
35.33214
35.2624
35.14872
34.99954
34.87607
34.9742
35.07656
35.13354
35.14907
35.1098
35.03654
34.92372
34.7889
34.74227
34.86545
34.89038
34.89359
34.87167
34.80244
36.857
36.90661
36.93204
36.94448
36.95186
36.95635
36.95847
36.95888
36.95764
36.95444
36.9486
36.93933
36.92157
36.88897
36.76703
36.34631
36.56442
36.67005
36.72695
36.76139
36.78259
36.79271
36.79463
36.78879
36.77354
36.74616
36.70302
36.62518
36.48606
36.22146
36.03993
36.28684
36.43691
36.52615
36.58201
36.61676
36.63348
36.63659
36.62704
36.60182
36.55726
36.48767
36.37113
36.18077
35.89097
35.79557
36.06328
36.2351
36.34563
36.41785
36.46313
36.48525
36.48932
36.47677
36.44355
36.38571
36.29667
36.15826
35.94638
35.65454
35.61296
35.87982
36.06061
36.18484
36.26914
36.32269
36.3496
36.35457
36.33922
36.29941
36.23134
36.12856
35.97817
35.76096
35.48889
35.47398
35.72236
35.90702
36.0419
36.13491
36.19482
36.22591
36.23178
36.21376
36.16867
36.09289
35.9803
35.82065
35.60943
35.36365
35.3387
35.57555
35.76961
35.9132
36.01292
36.07782
36.11208
36.1187
36.09854
36.04947
35.96776
35.84761
35.67791
35.46642
35.22921
35.17253
35.44177
35.64685
35.79545
35.90054
35.96964
36.00607
36.01313
35.99163
35.93943
35.8529
35.72731
35.5528
35.30314
35.06169
35.32549
35.53307
35.68662
35.79582
35.86852
35.90676
35.91411
35.89163
35.83663
35.74621
35.6161
35.43879
35.18796
34.96351
35.17225
35.39633
35.55469
35.66721
35.74371
35.78408
35.79184
35.76806
35.70995
35.61591
35.48245
35.29983
35.07651
34.96965
35.17504
35.34179
35.45951
35.54125
35.58457
35.59321
35.56711
35.50495
35.40597
35.26665
35.06966
34.86119
34.9419
35.11696
35.24325
35.33184
35.37942
35.38881
35.36061
35.29256
35.18939
35.01964
34.83401
34.74804
34.87959
35.01643
35.10862
35.15403
35.15988
35.13844
35.06734
34.94875
34.79707
34.77839
34.85659
34.8911
34.89462
34.87787
34.82142
34.72382
36.83565
36.90753
36.93414
36.94912
36.95767
36.9629
36.96609
36.96768
36.96798
36.96706
36.96472
36.96059
36.95397
36.94267
36.92305
36.88389
36.7258
36.35131
36.56569
36.68093
36.74884
36.78922
36.81436
36.82983
36.83754
36.839
36.83454
36.82316
36.80321
36.77162
36.71927
36.63156
36.481
36.21427
36.03001
36.29503
36.4579
36.56215
36.62812
36.67044
36.69674
36.70995
36.71244
36.70481
36.68538
36.6516
36.59895
36.51587
36.38565
36.18093
35.8986
35.7991
36.07664
36.26518
36.39282
36.4781
36.53457
36.57005
36.58804
36.59145
36.58103
36.55467
36.50932
36.43986
36.33524
36.18011
35.9518
35.67082
35.62204
35.89483
36.09677
36.2402
36.3402
36.40808
36.45122
36.47342
36.47764
36.46473
36.43246
36.3776
36.29487
36.17466
36.00426
35.76853
35.49103
35.46024
35.73525
35.94672
36.10235
36.21407
36.29107
36.3405
36.36632
36.37129
36.35617
36.31894
36.25637
36.16312
36.03052
35.8491
35.60603
35.32641
35.28664
35.57995
35.81004
35.97747
36.09848
36.18271
36.23728
36.26607
36.27166
36.2547
36.21342
36.14464
36.04315
35.90018
35.70516
35.42095
35.16163
35.44771
35.68817
35.8641
35.99178
36.08169
36.14048
36.17165
36.17772
36.15932
36.11473
36.04096
35.93323
35.78315
35.57727
35.29607
35.07063
35.33596
35.57787
35.759
35.89218
35.98665
36.04894
36.08208
36.08854
36.06897
36.0216
35.94377
35.83096
35.67554
35.4655
35.18666
35.18109
35.43881
35.6289
35.76905
35.86845
35.93458
35.96989
35.97678
35.9559
35.90547
35.82328
35.70466
35.54161
35.322
35.04659
34.97269
35.20992
35.41703
35.56855
35.67528
35.74695
35.78532
35.79286
35.7701
35.71528
35.62681
35.49922
35.32129
35.08362
34.84425
34.98624
35.20657
35.36122
35.47652
35.55463
35.59584
35.60364
35.57972
35.5201
35.42452
35.2888
35.10519
34.86747
34.7693
34.96559
35.13489
35.26382
35.34791
35.38901
35.39589
35.37362
35.31078
35.20481
35.06491
34.88266
34.71357
34.88833
35.02515
35.11335
35.15433
35.16024
35.13956
35.06852
34.94648
34.8221
34.75447
34.84633
34.87282
34.87253
34.8623
34.80982
34.70677
36.78491
36.90753
36.9355
36.95093
36.96071
36.9669
36.97084
36.97328
36.97452
36.97475
36.97403
36.97222
36.96909
36.96416
36.95637
36.94412
36.9242
36.87771
36.27639
36.56683
36.68616
36.75771
36.80404
36.83385
36.85309
36.86503
36.87113
36.8723
36.86874
36.85986
36.84452
36.82059
36.78338
36.7259
36.63569
36.4644
35.96026
36.28713
36.46423
36.57772
36.6535
36.70378
36.73685
36.75755
36.76818
36.77022
36.76401
36.74857
36.72208
36.68125
36.61943
36.52678
36.38656
36.15543
35.73393
36.05701
36.27081
36.41402
36.51238
36.57958
36.62467
36.65315
36.66788
36.67072
36.6621
36.64077
36.60447
36.54925
36.46778
36.34922
36.1753
35.90552
35.53941
35.86146
36.10038
36.26533
36.3814
36.46259
36.51793
36.55319
36.57159
36.57514
36.56435
36.53784
36.49306
36.42572
36.32842
36.19017
35.99272
35.68763
35.37729
35.68924
35.9476
36.12979
36.26035
36.35317
36.41716
36.45824
36.47983
36.48403
36.47131
36.4403
36.38833
36.31086
36.20048
36.04636
35.83056
35.52533
35.26283
35.55259
35.8109
36.00641
36.14878
36.25106
36.32219
36.36819
36.39253
36.39728
36.38291
36.34808
36.29007
36.2043
36.0833
35.9163
35.68946
35.39261
35.13958
35.43082
35.69093
35.89463
36.04572
36.15542
36.23242
36.28257
36.30923
36.31445
36.29868
36.26061
36.19758
36.10514
35.97604
35.80009
35.56732
35.27572
35.30591
35.57855
35.7907
35.94903
36.06502
36.14695
36.20063
36.22927
36.23488
36.21792
36.17708
36.10981
36.01174
35.87586
35.69231
35.44665
35.13979
35.16871
35.43884
35.66041
35.82822
35.95186
36.03943
36.0971
36.12797
36.13402
36.11574
36.07176
35.99971
35.89502
35.75056
35.55714
35.30493
35.02691
34.93312
35.20992
35.44694
35.63071
35.76602
35.86184
35.92534
35.9594
35.96608
35.94591
35.89739
35.81834
35.70388
35.54539
35.33555
35.06415
34.98888
35.23933
35.43214
35.57606
35.67995
35.74938
35.78623
35.7933
35.77174
35.7188
35.63268
35.50982
35.34146
35.12469
34.84541
34.77522
34.99487
35.21133
35.37119
35.48411
35.55952
35.59841
35.60556
35.58337
35.52629
35.43223
35.2992
35.11163
34.88999
34.74395
34.95291
35.14358
35.26406
35.34556
35.3871
35.39417
35.37141
35.30827
35.20629
35.06006
34.86335
34.70424
34.88479
35.01427
35.10274
35.144
35.14846
35.12969
35.05717
34.9384
34.81282
34.73843
34.82627
34.8562
34.8585
34.84744
34.77381
34.68634
36.72424
36.89174
36.93395
36.95148
36.96203
36.96906
36.97375
36.97684
36.97877
36.97978
36.97997
36.97938
36.97793
36.97546
36.97164
36.96589
36.95731
36.94405
36.91869
36.84117
36.21383
36.51132
36.67783
36.75951
36.81033
36.84444
36.86738
36.8826
36.89215
36.8971
36.89806
36.89515
36.888
36.8758
36.85706
36.82905
36.78753
36.72429
36.61217
36.3713
35.90885
36.21733
36.44672
36.57871
36.66403
36.72209
36.76169
36.78822
36.80496
36.81368
36.81536
36.81024
36.79768
36.77634
36.74381
36.6958
36.62558
36.52066
36.34929
36.05929
35.6862
35.98754
36.24381
36.41301
36.5263
36.60461
36.65882
36.69555
36.71888
36.73109
36.73345
36.72627
36.70872
36.67906
36.63425
36.56901
36.47499
36.3374
36.12718
35.8326
35.79702
36.06863
36.2628
36.39798
36.4932
36.56004
36.6058
36.63505
36.65043
36.65342
36.64436
36.6223
36.58522
36.52964
36.44972
36.33637
36.17466
35.94208
35.62197
35.63445
35.91708
36.12701
36.27906
36.3883
36.46596
36.5196
36.55408
36.57229
36.57584
36.56509
36.53902
36.49542
36.43054
36.33823
36.20927
36.03034
35.78612
35.46189
35.46002
35.78291
36.00428
36.16922
36.28991
36.37668
36.43707
36.47612
36.49684
36.50089
36.48864
36.45904
36.40981
36.33701
36.23439
36.09302
35.90157
35.64388
35.31568
35.33847
35.65971
35.89207
36.06742
36.19743
36.29182
36.35799
36.40101
36.42391
36.42839
36.41484
36.38217
36.32807
36.24856
36.13744
35.9861
35.78396
35.51323
35.19074
35.22585
35.54344
35.78641
35.97143
36.10957
36.2106
36.2818
36.32829
36.35311
36.35798
36.34327
36.30791
36.24956
36.16422
36.0457
35.88552
35.67265
35.39168
35.08705
35.08916
35.4044
35.65526
35.8512
35.99904
36.1079
36.18495
36.23547
36.26252
36.26784
36.2518
36.21329
36.15002
36.05785
35.93054
35.75993
35.53635
35.23296
34.87442
35.14997
35.44162
35.65467
35.81704
35.9375
36.02319
36.07968
36.10999
36.11594
36.09797
36.05484
35.98429
35.88207
35.74156
35.55529
35.3118
35.02537
34.93737
35.2312
35.45797
35.63203
35.7632
35.85719
35.91947
35.95274
35.95922
35.9396
35.89208
35.81444
35.70275
35.55052
35.35294
35.06717
34.78887
34.71888
34.99453
35.2371
35.42856
35.57483
35.67806
35.74638
35.78259
35.78952
35.76836
35.71632
35.63106
35.50776
35.33835
35.12392
34.86629
34.74053
34.97973
35.19876
35.36412
35.47715
35.55206
35.59192
35.59934
35.57638
35.51874
35.42533
35.28856
35.09734
34.87729
34.72421
34.93745
35.12144
35.24705
35.32889
35.37356
35.38098
35.35657
35.29138
35.18798
35.04021
34.84712
34.67617
34.84708
34.98022
35.06165
35.12147
35.12904
35.10101
35.0249
34.90483
34.75936
34.69194
34.76861
34.81784
34.82139
34.7908
34.738
36.70754
36.87584
36.92726
36.94954
36.96194
36.96988
36.9753
36.97902
36.98152
36.9831
36.98393
36.98409
36.9836
36.98241
36.9804
36.97734
36.97285
36.9663
36.95651
36.94023
36.90861
36.80337
36.20545
36.45555
36.64777
36.74971
36.8095
36.84839
36.87503
36.89336
36.90573
36.91357
36.91767
36.91847
36.91605
36.91016
36.90019
36.88506
36.86294
36.83084
36.78312
36.7061
36.56984
36.30205
35.89354
36.1109
36.3996
36.56086
36.66166
36.7287
36.775
36.80709
36.82885
36.84269
36.84995
36.85136
36.84708
36.83666
36.81908
36.79254
36.75395
36.69836
36.61674
36.49013
36.28347
35.98406
35.66458
35.88547
36.18696
36.38836
36.52212
36.61341
36.6772
36.7218
36.75226
36.7717
36.78194
36.78393
36.77789
36.76322
36.73856
36.70153
36.64812
36.57192
36.46188
36.29803
36.0498
35.74306
35.6939
36.00757
36.23446
36.39262
36.50388
36.58283
36.63859
36.67695
36.70154
36.71452
36.71706
36.70939
36.6908
36.65968
36.61319
36.54673
36.45304
36.32061
36.13126
35.85787
35.53032
35.54267
35.85402
36.09725
36.27329
36.40065
36.49254
36.5581
36.60351
36.63276
36.64825
36.65128
36.64212
36.61997
36.58303
36.52817
36.45038
36.34212
36.19239
35.98539
35.70189
35.38659
35.40964
35.71326
35.97242
36.16309
36.30363
36.40648
36.48057
36.53221
36.56562
36.58338
36.58686
36.57635
36.551
36.50889
36.44667
36.35915
36.23875
36.07503
35.85253
35.56007
35.26518
35.25861
35.5842
35.85736
36.06044
36.21212
36.32435
36.40585
36.46299
36.50012
36.51991
36.52379
36.51207
36.48386
36.43715
36.3685
36.27257
36.14187
35.9663
35.73063
35.3976
35.14226
35.46655
35.75001
35.96348
36.12496
36.24544
36.33351
36.39556
36.43602
36.45763
36.46188
36.44906
36.41828
36.36747
36.29308
36.18973
36.04998
35.86408
35.61801
35.28482
35.03197
35.33275
35.61798
35.84252
36.01524
36.14535
36.24116
36.30899
36.35339
36.37717
36.38185
36.36774
36.33391
36.27825
36.19711
36.08506
35.93482
35.73727
35.4817
35.17674
35.09954
35.39925
35.64492
35.83468
35.9789
36.08618
36.16267
36.21301
36.24004
36.24535
36.22931
36.1909
36.12795
36.03676
35.91186
35.74622
35.52946
35.25564
34.9563
34.88002
35.17679
35.44657
35.65161
35.80853
35.92682
36.01164
36.06768
36.09775
36.10364
36.08583
36.04305
35.97308
35.87222
35.73525
35.55625
35.31894
35.02296
34.94334
35.23186
35.45052
35.62285
35.75435
35.84821
35.91022
35.94348
35.94997
35.93031
35.88294
35.80556
35.69367
35.54194
35.3477
35.09903
34.79167
34.72305
34.97786
35.22257
35.41442
35.561
35.66465
35.73328
35.77036
35.77753
35.75569
35.70297
35.61748
35.49355
35.32413
35.10911
34.86288
34.71573
34.95842
35.17866
35.33773
35.45269
35.52879
35.57092
35.57891
35.55428
35.49495
35.39998
35.26558
35.07761
34.85383
34.68929
34.90145
35.07284
35.20102
35.28556
35.33546
35.34496
35.31586
35.24841
35.14348
35.0034
34.81278
34.76804
34.88834
34.99261
35.04136
35.05635
35.02378
34.93112
34.83864
34.70216
34.67109
34.74285
34.74552
34.72576
36.70561
36.8639
36.91484
36.94456
36.95998
36.96946
36.97577
36.98014
36.98318
36.98526
36.98657
36.98727
36.9874
36.98699
36.986
36.98433
36.9818
36.97815
36.97291
36.96524
36.95329
36.93273
36.88997
36.81148
36.20813
36.4284
36.59313
36.72589
36.79981
36.84619
36.8773
36.8989
36.91398
36.92425
36.93081
36.93426
36.93493
36.93289
36.92795
36.91964
36.90713
36.88906
36.8632
36.82546
36.76747
36.67094
36.50376
36.32054
35.90207
36.11926
36.31886
36.52189
36.64482
36.72458
36.77885
36.8168
36.84339
36.86158
36.87321
36.87934
36.88053
36.87691
36.86813
36.8534
36.8313
36.7995
36.75419
36.68873
36.59035
36.4344
36.20608
36.00566
35.67515
35.88195
36.09652
36.33959
36.49952
36.6075
36.68243
36.73535
36.77266
36.7983
36.81473
36.82342
36.82512
36.81998
36.80756
36.78675
36.75566
36.71116
36.64826
36.55859
36.42762
36.23113
35.96872
35.77302
35.5001
35.65901
35.91102
36.17975
36.36606
36.49663
36.58931
36.65558
36.70267
36.7352
36.75613
36.76721
36.76938
36.76282
36.74698
36.72054
36.68119
36.62522
36.54686
36.43703
36.28126
36.05797
35.76772
35.58843
35.37115
35.50916
35.75628
36.03832
36.24384
36.39246
36.50014
36.57814
36.63402
36.67283
36.69789
36.71119
36.7138
36.70592
36.68693
36.65532
36.60848
36.54231
36.45061
36.32417
36.14934
35.90859
35.61256
35.43344
35.38058
35.61509
35.90856
36.13082
36.29456
36.41501
36.50327
36.56698
36.61148
36.64031
36.65565
36.65866
36.64957
36.62769
36.59138
36.53782
36.46263
36.35941
36.21897
36.02801
35.77126
35.47801
35.30381
35.25775
35.48447
35.78955
36.02574
36.20214
36.33362
36.43087
36.50158
36.5512
36.58346
36.60067
36.60405
36.59385
36.56933
36.52876
36.46916
36.38599
36.27274
36.12039
35.9161
35.64453
35.32575
35.17548
35.12248
35.36478
35.68156
35.92738
36.11421
36.2553
36.36057
36.43757
36.49185
36.52724
36.54616
36.54988
36.53866
36.51173
36.46728
36.40222
36.3119
36.1898
36.02726
35.81266
35.53264
35.2094
35.0278
35.23732
35.54916
35.80508
36.00371
36.15596
36.27062
36.35508
36.41491
36.45407
36.47504
36.47917
36.46672
36.43689
36.38779
36.31624
36.21748
36.08507
35.9108
35.68499
35.39483
35.10174
35.0097
35.33363
35.60409
35.8217
35.99073
36.11929
36.21496
36.28324
36.32816
36.35228
36.35703
36.34271
36.30843
36.25225
36.17087
36.05955
35.91186
35.71933
35.47562
35.15943
35.09002
35.39801
35.63689
35.82191
35.96343
36.06985
36.14624
36.19668
36.22381
36.22915
36.21304
36.17451
36.11152
36.02069
35.89746
35.73563
35.52421
35.26109
34.93085
34.86197
35.16573
35.43704
35.63855
35.79424
35.91239
35.99733
36.05354
36.08384
36.0898
36.07181
36.02881
35.95871
35.85776
35.72142
35.54449
35.31256
35.01926
34.92931
35.21418
35.43248
35.60441
35.73541
35.82954
35.8921
35.92607
35.93275
35.91256
35.86451
35.7867
35.6749
35.52379
35.32974
35.08407
34.77675
34.69195
34.95068
35.19613
35.38642
35.53049
35.63481
35.70464
35.74321
35.7508
35.72784
35.67374
35.58718
35.46423
35.29718
35.08267
34.834
34.66724
34.91213
35.1245
35.28627
35.40261
35.48132
35.52608
35.53493
35.50824
35.44636
35.34967
35.21226
35.02805
34.81113
34.81754
34.99663
35.11972
35.21054
35.26416
35.27424
35.24376
35.1698
35.05888
34.90181
34.69262
34.68095
34.79393
34.88435
34.96313
34.96995
34.91736
34.84799
34.75234
36.75956
36.8673
36.90983
36.93531
36.9559
36.96763
36.9752
36.98037
36.984
36.98654
36.98829
36.98941
36.99
36.99011
36.98976
36.98892
36.9875
36.98538
36.98234
36.97802
36.9718
36.96245
36.94731
36.92151
36.89305
36.82196
36.66956
36.23161
36.4368
36.57617
36.68317
36.78011
36.8372
36.87447
36.90003
36.91799
36.93064
36.93933
36.94489
36.94783
36.94841
36.94667
36.94246
36.93542
36.92488
36.90979
36.8884
36.85768
36.81191
36.73902
36.62333
36.51533
36.33195
35.91478
36.12925
36.30248
36.45537
36.61192
36.70907
36.77386
36.81875
36.85049
36.8729
36.88833
36.89823
36.90347
36.9045
36.9014
36.89391
36.88138
36.86269
36.83598
36.79828
36.74455
36.66569
36.544
36.36759
36.22369
36.01386
35.68107
35.8965
36.08007
36.25762
36.45663
36.58653
36.67548
36.73804
36.78263
36.81428
36.83613
36.85019
36.85764
36.8591
36.85469
36.84405
36.82628
36.79984
36.76221
36.70943
36.63503
36.52796
36.36859
36.15328
35.99543
35.77831
35.49479
35.71357
35.89379
36.08723
36.31582
36.47134
36.58075
36.65897
36.71528
36.7555
36.78339
36.80138
36.81093
36.8128
36.80715
36.79351
36.77081
36.73713
36.68945
36.62308
36.53071
36.40059
36.21333
35.97169
35.80972
35.59578
35.36601
35.55792
35.73528
35.93942
36.18804
36.36366
36.49023
36.58217
36.64902
36.69709
36.73058
36.75223
36.76375
36.76601
36.75919
36.74276
36.71546
36.6751
36.61828
36.53984
36.43204
36.28313
36.07519
35.81753
35.64673
35.46017
35.40595
35.59939
35.80672
36.07046
36.26274
36.40392
36.50785
36.58413
36.63934
36.67797
36.70302
36.71638
36.719
36.71109
36.69205
36.66051
36.61405
36.54898
36.45985
36.33874
36.17404
35.94935
35.68256
35.50886
35.31516
35.2787
35.47296
35.68533
35.96197
36.16787
36.32145
36.4359
36.52063
36.58232
36.62568
36.65388
36.66893
36.67189
36.66297
36.64152
36.60606
36.55403
36.48152
36.38291
36.25027
36.07243
35.8341
35.55678
35.38389
35.18494
35.17152
35.35078
35.57412
35.86129
36.07805
36.24222
36.36599
36.45835
36.52596
36.57366
36.60477
36.62142
36.62469
36.61482
36.59113
36.55206
36.49491
36.41563
36.30854
36.16586
35.97714
35.72818
35.44107
35.24482
35.09192
35.04353
35.20834
35.44101
35.73643
35.96534
36.14176
36.2765
36.3779
36.45261
36.50557
36.54023
36.55881
36.56246
36.55144
36.52503
36.48157
36.41825
36.33092
36.21379
36.05936
35.85826
35.59799
35.30365
35.13437
35.00543
35.22785
35.52998
35.7788
35.97451
36.12589
36.24093
36.32646
36.38752
36.42768
36.44927
36.45352
36.4407
36.41005
36.3598
36.28704
36.18749
36.05525
35.8827
35.66174
35.38236
35.08108
34.92635
35.0104
35.31012
35.58703
35.80338
35.97088
36.09879
36.19468
36.26351
36.30896
36.33344
36.33827
36.32372
36.28899
36.23223
36.1504
36.03923
35.8927
35.70175
35.45832
35.13542
34.86373
35.06377
35.37844
35.61847
35.80285
35.94428
36.05104
36.12797
36.17893
36.20645
36.21188
36.19551
36.15651
36.09298
36.00167
35.87829
35.71683
35.50592
35.24062
34.90499
34.84176
35.14309
35.41119
35.61376
35.77021
35.88887
35.97458
36.0316
36.06257
36.0687
36.05025
36.00647
35.93556
35.83398
35.69708
35.51911
35.2871
34.99766
34.88747
35.16784
35.39344
35.56778
35.70019
35.79592
35.85993
35.89507
35.90204
35.88105
35.83166
35.7523
35.63901
35.48621
35.28809
35.00859
34.73435
34.87696
35.12325
35.3229
35.47489
35.58299
35.65546
35.69587
35.70389
35.67975
35.62334
35.5339
35.40488
35.22937
34.98478
34.71995
34.82084
35.03084
35.20342
35.3258
35.40882
35.45633
35.46525
35.43762
35.37162
35.27061
35.12183
34.91896
34.68538
34.69245
34.88057
35.02134
35.11175
35.16782
35.17406
35.14637
35.06451
34.94265
34.79579
34.694
34.77615
34.82206
34.80361
34.8116
34.73088
36.80239
36.87432
36.91065
36.93203
36.94866
36.96418
36.97353
36.97975
36.98407
36.98713
36.98929
36.99079
36.99175
36.99225
36.99235
36.99205
36.99133
36.99011
36.9883
36.98573
36.98209
36.97693
36.96937
36.95755
36.93929
36.92276
36.89465
36.85037
36.69425
36.27645
36.44464
36.58112
36.66997
36.74569
36.8204
36.86624
36.89694
36.91834
36.93354
36.94431
36.95175
36.95653
36.95907
36.95957
36.95807
36.95445
36.9484
36.9394
36.92658
36.90857
36.88302
36.84577
36.78821
36.70242
36.63021
36.52033
36.3395
36.18508
35.9264
36.13982
36.31212
36.43822
36.5556
36.6804
36.75954
36.81331
36.85109
36.87804
36.8972
36.91045
36.91898
36.92351
36.92439
36.92172
36.91525
36.90448
36.88846
36.8657
36.83381
36.78887
36.72401
36.62585
36.48747
36.38028
36.23238
36.0286
35.67986
35.90205
36.09324
36.23923
36.38383
36.54797
36.65582
36.73046
36.78348
36.82155
36.84872
36.86756
36.87971
36.88616
36.88742
36.8836
36.87439
36.85906
36.83631
36.80409
36.75918
36.69641
36.60709
36.47522
36.29879
36.17122
36.00389
35.7817
35.49014
35.71497
35.91193
36.06782
36.23079
36.42482
36.55654
36.64951
36.71638
36.76476
36.79946
36.82361
36.83921
36.84751
36.84914
36.84422
36.83239
36.81271
36.7836
36.74253
36.68565
36.60693
36.49662
36.33782
36.13399
35.99427
35.81923
35.59264
35.3447
35.56484
35.75463
35.91789
36.09431
36.31083
36.46219
36.57106
36.65034
36.70818
36.74989
36.77902
36.79789
36.80794
36.80991
36.80396
36.78963
36.76586
36.7308
36.68156
36.61381
36.52099
36.39291
36.21281
35.98912
35.83981
35.66244
35.44943
35.2511
35.40992
35.61606
35.78598
35.97113
36.20493
36.37262
36.49528
36.58565
36.6521
36.70028
36.73406
36.75599
36.76769
36.76999
36.76306
36.74639
36.71879
36.6782
36.62146
36.5439
36.43866
36.29544
36.09819
35.86044
35.70468
35.51995
35.33282
35.28692
35.4926
35.66605
35.85829
36.10608
36.2874
36.42204
36.52231
36.5966
36.65075
36.68886
36.71366
36.72692
36.72952
36.72166
36.70279
36.67161
36.62591
36.5623
36.47588
36.35967
36.20356
35.99226
35.74297
35.58279
35.39553
35.19226
35.17359
35.36795
35.55309
35.75371
36.01299
36.2058
36.35095
36.46015
36.54161
36.60129
36.64342
36.67093
36.68564
36.68853
36.6798
36.65887
36.62434
36.57388
36.50394
36.40948
36.2835
36.11628
35.8934
35.63372
35.46492
35.25396
35.07893
35.05552
35.22396
35.41927
35.6257
35.89661
36.10247
36.26
36.37984
36.46993
36.53631
36.58337
36.61419
36.63071
36.63396
36.62415
36.60067
36.56204
36.50578
36.42819
36.3241
36.18654
36.00641
35.77086
35.50193
35.32861
35.14627
35.03082
35.20696
35.41925
35.70355
35.93006
36.10688
36.24303
36.34633
36.42306
36.47783
36.51386
36.53323
36.53705
36.52554
36.49804
36.45297
36.3877
36.29836
36.17953
36.0241
35.82365
35.56905
35.29158
35.11145
34.93683
34.9908
35.20297
35.50101
35.75257
35.94916
36.10108
36.21694
36.30359
36.36578
36.40684
36.42897
36.43334
36.42018
36.38879
36.33752
36.26359
36.16304
36.03016
35.85703
35.63456
35.35393
35.06292
34.901
34.9782
35.28234
35.56161
35.77862
35.94678
36.07565
36.17261
36.24249
36.28878
36.3138
36.31874
36.30386
36.26841
36.2107
36.12779
36.01559
35.86823
35.67676
35.43216
35.1071
34.82321
35.0349
35.34877
35.58642
35.77239
35.9157
36.02403
36.10234
36.15439
36.18265
36.18824
36.1714
36.13147
36.06669
35.97391
35.84881
35.68541
35.47421
35.21137
34.87517
34.78461
35.10117
35.36061
35.56819
35.7288
35.85059
35.93866
35.99736
36.02939
36.03575
36.01662
35.97147
35.89857
35.79424
35.65378
35.47096
35.23436
34.95074
34.8291
35.09161
35.32266
35.50463
35.64384
35.74378
35.81027
35.84681
35.85404
35.83226
35.7809
35.69841
35.57941
35.4194
35.21248
34.95244
34.65854
34.80564
35.0361
35.23434
35.3957
35.50952
35.58493
35.6267
35.63468
35.61019
35.55144
35.45824
35.32053
35.13909
34.91316
34.66812
34.69733
34.91502
35.10303
35.22759
35.3123
35.35881
35.36576
35.34122
35.27387
35.1714
35.01783
34.82681
34.76489
34.88531
34.98346
35.03381
35.03574
35.0152
34.9251
34.82891
34.66862
34.71371
34.72474
36.75957
36.87431
36.91097
36.93227
36.94613
36.95822
36.97052
36.9782
36.98342
36.98708
36.98971
36.99157
36.99287
36.9937
36.99414
36.99423
36.99397
36.99333
36.99228
36.99072
36.9885
36.98541
36.98105
36.97476
36.96518
36.95127
36.93991
36.92281
36.89585
36.83851
36.23167
36.44462
36.58185
36.67238
36.73464
36.79158
36.85143
36.8893
36.91512
36.93334
36.94637
36.95567
36.96211
36.96626
36.96847
36.9689
36.9676
36.96445
36.9592
36.95142
36.9404
36.925
36.90337
36.87229
36.8253
36.75858
36.70628
36.63152
36.52062
36.34804
35.91486
36.13988
36.31532
36.44395
36.53943
36.63186
36.73388
36.79993
36.8454
36.87768
36.90087
36.91743
36.92893
36.93635
36.94029
36.94107
36.93873
36.9331
36.92374
36.90986
36.89023
36.86289
36.82467
36.77015
36.68892
36.57777
36.49518
36.38446
36.23463
36.02222
35.68115
35.90213
36.09676
36.24759
36.36475
36.48342
36.62066
36.71186
36.7755
36.82104
36.85392
36.87748
36.89388
36.90448
36.91012
36.91122
36.90788
36.89984
36.88648
36.86671
36.83882
36.80013
36.7464
36.67055
36.55957
36.4134
36.30981
36.17696
36.00558
35.78103
35.49486
35.71504
35.91569
36.07818
36.20952
36.34759
36.51331
36.62628
36.70631
36.76412
36.80612
36.83634
36.85743
36.87108
36.87835
36.87978
36.87547
36.86511
36.84791
36.82251
36.78681
36.73752
36.66961
36.57486
36.43886
36.26558
36.14731
36.00127
35.82046
35.59424
35.36605
35.56487
35.76141
35.92957
36.0711
36.22382
36.41227
36.5438
36.6384
36.70743
36.75791
36.7944
36.81993
36.8365
36.84534
36.84707
36.84183
36.82925
36.80839
36.77768
36.73466
36.6756
36.59487
36.48363
36.32693
36.13273
36.00351
35.84895
35.66639
35.45435
35.40992
35.62203
35.79787
35.94714
36.11064
36.31722
36.46453
36.57201
36.65123
36.70955
36.75191
36.78164
36.80098
36.8113
36.81333
36.80721
36.79251
36.76819
36.73249
36.68265
36.61462
36.5224
36.39682
36.22303
36.01284
35.87561
35.71352
35.52255
35.3241
35.28694
35.50118
35.67991
35.8343
36.00613
36.22746
36.38824
36.50714
36.59561
36.66118
36.70901
36.7427
36.76465
36.77639
36.7787
36.77173
36.75503
36.72745
36.68706
36.63089
36.55465
36.4521
36.31403
36.12597
35.90308
35.76
35.59384
35.40045
35.19185
35.17361
35.38682
35.56973
35.72938
35.90844
36.14202
36.31444
36.44357
36.5405
36.61277
36.66573
36.70315
36.72758
36.74066
36.74324
36.73547
36.71687
36.6862
36.6414
36.57935
36.49554
36.38363
36.23455
36.03443
35.80093
35.65237
35.48138
35.2837
35.08213
35.05554
35.26105
35.44007
35.60179
35.78759
36.03439
36.22026
36.36154
36.46865
36.54907
36.60832
36.65034
36.67786
36.69262
36.69553
36.68676
36.66579
36.6313
36.58107
36.51182
36.41885
36.29574
36.13373
35.92005
35.67576
35.52299
35.354
35.15694
35.03932
35.2195
35.39288
35.59015
35.85538
36.06182
36.22189
36.34473
36.43781
36.50691
36.55622
36.58867
36.60611
36.60955
36.59918
36.57442
36.53384
36.47507
36.3946
36.28747
36.14706
35.96507
35.73133
35.47148
35.30888
35.12088
34.94046
35.00441
35.1756
35.38704
35.6702
35.89844
36.07705
36.21501
36.32018
36.39875
36.45512
36.49234
36.51241
36.51638
36.50444
36.47598
36.4295
36.36249
36.27127
36.15061
35.99341
35.79114
35.53582
35.26007
35.08257
34.89413
34.95352
35.1702
35.47023
35.72246
35.91995
36.07337
36.19099
36.27937
36.34304
36.38524
36.40804
36.41255
36.39898
36.36668
36.31408
36.23853
36.1362
36.00165
35.82732
35.60413
35.32269
35.02771
34.85614
34.94514
35.24914
35.52533
35.74249
35.91277
36.04414
36.14335
36.21506
36.26271
36.28854
36.29365
36.27826
36.24173
36.18241
36.09745
35.98285
35.83303
35.64026
35.39625
35.07413
34.78512
34.9922
35.29335
35.53497
35.72495
35.87234
35.98421
36.06522
36.11912
36.14842
36.15424
36.13676
36.09537
36.02833
35.93241
35.80346
35.63587
35.42098
35.14545
34.8253
34.71846
34.99971
35.2882
35.50119
35.66731
35.79464
35.88669
35.94784
35.98118
35.98778
35.96791
35.92088
35.84485
35.73561
35.58944
35.40135
35.15867
34.86873
34.69367
34.97622
35.2321
35.4207
35.56709
35.67193
35.74133
35.77922
35.78659
35.7642
35.71066
35.62451
35.49911
35.33189
35.12015
34.86413
34.66209
34.91059
35.12766
35.29311
35.41127
35.49068
35.5338
35.54167
35.51699
35.4553
35.3585
35.21526
35.02989