
21909
(
33.12858
32.94834
32.88182
32.96312
32.9542
32.96313
32.88843
32.88438
32.98603
32.92056
32.88229
32.91132
32.77044
32.85214
32.8525
32.89825
33.08317
32.98076
32.95316
33.11806
33.08312
32.9807
32.90812
33.09781
33.00015
33.0007
32.95594
32.96414
33.00009
33.00059
33.02218
33.01198
32.92186
32.9653
32.96278
33.09303
33.09613
33.01925
32.99329
33.06633
33.01884
32.99357
33.05375
33.0193
32.99336
32.9151
32.94806
32.98156
32.95256
32.95531
32.90877
32.91516
32.94811
32.86468
32.88867
32.9248
32.89726
32.87678
32.85148
32.86476
32.88874
32.82014
32.8415
32.86934
32.84138
32.82957
32.81188
32.82022
32.84159
32.80066
32.80386
32.81673
32.77336
32.80351
32.82088
32.80074
32.80394
32.74819
32.78625
32.71906
32.69052
32.81523
32.81523
32.74826
32.78632
32.80537
32.76005
32.74627
32.7983
32.80529
32.75993
32.78353
32.72816
32.71164
32.74982
32.7439
32.73481
32.75602
32.7497
32.74378
32.7315
32.75512
32.72324
32.71622
32.83607
32.72662
32.68111
32.83486
32.83609
32.72681
32.71217
32.72314
32.71612
32.70854
32.67691
32.63401
32.77124
32.81672
32.80445
32.78086
32.77128
32.81674
32.67685
32.63392
32.56731
32.60533
32.72284
32.72576
32.73382
32.72528
32.83162
32.81607
32.74771
32.81173
32.83164
32.81605
32.72291
32.72582
32.62982
32.57382
32.62085
32.67902
32.77364
32.70501
32.72825
32.68876
32.64807
32.69689
32.7282
32.68887
32.77362
32.70498
32.62086
32.67904
32.71027
32.6938
32.75162
32.74588
32.73201
32.76615
32.76271
32.70859
32.69459
32.76499
32.7627
32.70862
32.73202
32.76615
32.75164
32.74587
32.71027
32.69383
32.66558
32.65344
32.69983
32.68276
32.64975
32.73045
32.69518
32.75463
32.67408
32.64982
32.73046
32.69518
32.69985
32.70784
32.68605
32.66556
33.18599
32.9555
33.11627
33.34177
33.1162
32.95093
32.94556
33.11571
32.94267
32.93664
33.05053
33.09224
32.92386
32.90597
32.99884
33.02443
32.88508
32.86249
32.94495
32.97226
32.91694
32.83896
32.81508
32.88773
32.79151
32.76989
32.824
32.85681
32.75541
32.81653
32.75967
32.79039
32.83956
32.82616
32.84265
32.87042
32.83952
32.82611
32.7148
32.73555
32.80766
32.79705
32.78494
32.81107
32.80759
32.79694
32.68818
32.69663
32.69074
32.74364
32.78299
32.7744
32.83246
32.63764
32.66025
32.79487
32.73331
32.69009
32.65754
32.71862
32.69032
32.68792
32.73809
32.71873
32.69043
32.69399
32.70603
32.63062
32.61032
32.70583
32.67957
32.69414
32.70616
32.64214
32.60775
32.74689
32.68238
32.67797
32.70805
32.76119
32.76449
32.70944
32.7081
32.76124
32.70323
32.73681
32.70146
32.72361
32.68731
32.72195
32.69154
32.69736
32.68905
32.70149
32.72363
32.64137
32.62755
32.64733
32.61171
32.62759
32.67918
32.71327
32.66128
32.62662
32.6414
32.58376
32.64315
32.6954
32.64198
32.61691
32.67179
32.65133
32.72154
32.67873
32.67784
32.69998
32.72158
32.67876
32.67183
32.65138
32.58382
32.64321
32.69833
32.73023
32.69201
32.66958
32.70723
32.74233
32.73025
32.69203
32.66961
32.69837
32.71769
32.70462
32.64543
32.97358
33.17405
33.18409
32.97829
33.01294
32.98637
32.98811
33.01436
33.17097
33.11545
33.09231
33.12943
33.13507
33.20465
33.17094
33.11541
33.17647
33.12531
33.18454
33.13141
33.18598
33.14988
33.08585
33.04808
33.11105
33.01157
32.97561
33.03348
33.07182
32.93985
32.90456
32.96162
32.99663
32.86986
32.83547
32.89359
32.92782
32.85768
32.8011
32.76689
32.82032
32.73371
32.70394
32.74751
32.78293
32.68391
32.68543
32.69427
32.71663
32.77427
32.82871
32.86484
32.79507
32.77425
32.82869
32.71333
32.68914
32.76837
32.8299
32.84199
32.80014
32.84919
32.66836
32.71738
32.80152
32.74863
32.63305
32.6295
32.69756
32.66428
32.82375
32.81462
32.83847
32.77263
32.7131
32.78388
32.81789
32.83855
32.77267
32.72041
32.73406
32.71652
32.80503
32.70357
32.72285
32.747
32.71533
32.71172
32.70181
32.65901
32.72319
32.74088
32.72586
32.70502
32.70161
32.67031
32.69283
32.7446
32.73516
32.67675
32.71534
32.70508
32.70168
32.68926
32.70817
32.71259
32.75353
32.80121
32.74125
32.67614
32.69005
32.68932
32.70823
32.72772
32.66934
32.70972
32.73221
32.74025
32.71181
32.67555
32.7125
32.7153
32.73788
32.73911
32.71252
32.71532
32.71184
32.67558
32.73195
32.7403
32.72778
33.45232
33.23028
33.0845
33.19221
33.19369
33.09382
33.12211
33.20183
33.12145
33.18109
33.221
33.21839
33.18134
33.19383
33.18503
33.17385
33.20021
33.15706
33.12383
33.1128
33.14429
33.08054
33.08879
33.05376
33.04839
33.01971
32.98698
32.98497
33.0166
32.95487
32.92151
32.91816
32.95263
32.88557
32.84773
32.84403
32.88128
32.80963
32.80993
32.77421
32.77666
32.74278
32.71895
32.73477
32.74723
32.70485
32.70723
32.78756
32.77199
32.8751
32.80376
32.81746
32.77932
32.86185
32.82945
32.78803
32.78782
32.83658
32.69917
32.73694
32.74331
32.71062
32.81841
32.71918
32.73778
32.79254
32.87675
32.76989
32.79789
32.79103
32.84604
32.77685
32.81063
32.82146
32.81399
32.70521
32.77696
32.81075
32.76236
32.73698
32.72368
32.71379
32.76704
32.77736
32.77279
32.69372
32.78783
32.75637
32.76691
32.69499
32.78316
32.76202
32.777
32.74343
32.72927
32.77702
32.75603
32.78328
32.76213
32.69591
32.6628
32.69405
32.80843
32.76377
32.77585
32.82373
32.77911
32.75237
32.71086
32.76872
32.74883
32.77921
32.75247
32.71097
32.77598
32.6898
32.65677
32.70068
32.7628
32.7127
32.75184
32.72447
32.74112
32.71915
32.78712
32.80441
32.69101
32.71353
32.81623
32.80442
32.69102
32.71918
32.78717
32.74119
32.76287
33.52439
33.26212
33.16204
33.40433
33.25274
33.23597
33.14053
33.15449
33.21487
33.19116
33.09927
33.12174
33.16483
33.13579
33.04657
33.07394
33.10476
33.07303
32.99016
33.01816
33.04182
33.01176
32.94608
32.96481
32.98322
32.95251
32.97949
32.94372
32.91628
32.87794
32.94394
32.97407
32.84102
32.81027
32.88332
32.91074
32.7971
32.82764
32.85648
32.91551
32.88082
32.82686
32.89214
32.88637
32.82771
32.84553
32.80243
32.86097
32.88451
32.86743
32.83455
32.84908
32.83668
32.80608
32.76704
32.80346
32.77309
32.73776
32.7014
32.7292
32.71749
32.75795
32.84789
32.73842
32.79692
32.84226
32.83876
32.87231
32.85989
32.81241
32.78789
32.76466
32.82775
32.83451
32.76007
32.80602
32.77743
32.77088
32.79986
32.82956
32.82226
32.71162
32.7188
32.84544
32.70617
32.73511
32.73276
32.79551
32.7117
32.8158
32.76445
32.86144
32.81716
32.74233
32.81456
32.78447
32.78769
32.82477
32.75873
32.73528
32.80374
32.81578
32.78467
32.78787
32.80527
32.82804
32.80051
32.80477
32.81827
32.81395
32.81578
32.82017
32.80544
32.82821
32.76512
32.78334
32.79543
32.77802
32.8249
32.78589
32.81012
32.75956
32.80098
32.78603
32.81028
32.84606
32.8251
32.76529
32.80128
32.76706
32.80135
32.755
32.74241
32.8177
32.76288
32.74237
32.80126
33.35672
33.53505
33.27179
33.19237
33.18809
33.26701
33.2554
33.17687
33.16023
33.23835
33.21749
33.13959
33.1162
33.19415
33.16938
33.09117
33.06562
33.14395
33.11851
33.04099
33.0195
33.09409
33.07339
33.00599
33.0173
33.06647
33.06806
33.06079
33.01726
33.03979
33.05068
33.01729
32.95374
32.98521
32.98061
32.94291
32.93078
32.93608
32.90743
32.87915
32.88589
32.9147
32.86931
32.90296
32.8179
32.85202
32.90342
32.87986
32.77452
32.78902
32.85512
32.85061
32.82936
32.80821
32.80839
32.86438
32.84838
32.80223
32.83233
32.84059
32.8554
32.86762
32.84229
32.84927
32.80068
32.83958
32.85832
32.84097
32.82652
32.84772
32.81555
32.81681
32.85819
32.7876
32.77542
32.74595
32.76136
32.77969
32.7777
32.77624
32.83817
32.82429
32.80026
32.84396
32.72244
32.72815
32.74719
32.828
32.77956
32.75572
32.74272
32.71758
32.73257
32.72677
32.83009
32.74875
32.72595
32.74203
32.84557
32.86459
32.76898
32.71125
32.75065
32.7585
32.821
32.73644
32.75365
32.84313
32.82764
32.82289
32.74766
32.80883
32.81502
32.81164
32.8604
32.82526
32.73179
32.80911
32.81534
32.80127
32.80616
32.77891
32.83167
32.85413
32.79519
32.79429
32.75752
32.83884
32.83596
32.80891
32.79841
32.82349
32.81418
32.80885
32.79836
32.75762
32.83913
32.79492
32.77925
33.27749
33.53617
33.43496
33.20552
33.25559
33.26986
33.19833
33.18503
33.216
33.23701
33.16794
33.15003
33.1744
33.1944
33.13671
33.13758
33.12717
33.15345
33.17882
33.18355
33.07318
33.09823
33.16296
33.14182
33.17471
33.11703
33.08833
33.06436
33.1435
33.14417
33.08382
33.05821
33.12323
33.09133
33.02582
32.99277
33.05695
33.02333
32.96252
32.93894
32.99255
32.97567
32.94019
32.97425
32.96809
32.96045
32.94176
32.92884
32.94971
32.91757
32.91513
32.89662
32.93202
32.88118
32.84565
32.89369
32.92226
32.80684
32.79816
32.86762
32.86613
32.85259
32.88503
32.92915
32.88491
32.88336
32.87173
32.88792
32.90465
32.87595
32.7841
32.80717
32.85206
32.82646
32.81532
32.79857
32.8185
32.83597
32.83892
32.81106
32.80612
32.84635
32.85653
32.81714
32.82446
32.82059
32.83254
32.82433
32.82838
32.82641
32.76639
32.82598
32.80799
32.81499
32.83241
32.70234
32.71986
32.79401
32.8014
32.8411
32.82489
32.83813
32.79473
32.8115
32.78966
32.68411
32.73907
32.74735
32.68548
32.70818
32.74946
32.7249
32.73274
32.77307
32.80573
32.79111
32.71032
32.71256
32.73678
32.81781
32.79758
32.79058
32.77943
32.77696
32.72321
32.71339
32.76709
32.80499
32.8622
32.86647
32.84946
32.86724
32.8632
32.78505
32.85087
32.86836
32.80586
32.86324
32.76781
32.78007
33.24066
33.43575
33.49749
33.3103
33.22226
33.23453
33.30467
33.2931
33.27668
33.25619
33.1865
33.20557
33.15868
33.16871
33.23216
33.20521
33.20287
33.19486
33.17699
33.14918
33.21729
33.24407
33.20279
33.19474
33.14926
33.17684
33.12126
33.09507
33.22484
33.19907
33.14918
33.17676
33.13024
33.13398
33.07772
33.11939
33.13669
33.18623
33.18035
33.13011
33.13389
33.15636
33.12293
33.15788
33.17396
33.13008
33.08621
33.04784
33.08635
33.00874
32.96982
33.00978
33.0478
32.93358
32.9057
32.94058
32.97323
32.89368
32.9408
32.96853
32.94534
32.9162
32.97987
33.01632
33.01734
33.01329
32.95399
32.97975
32.98334
32.93529
32.90339
32.92134
32.8856
32.85335
32.96081
32.92792
32.90077
33.00626
32.99471
32.99741
32.94432
32.93243
32.95549
32.90472
32.84571
32.88827
32.91406
32.83689
32.86342
32.88838
32.87151
32.87087
32.88631
32.88126
32.90046
32.89735
32.90159
32.87973
32.86432
32.86151
32.86965
32.81762
32.84964
32.83492
32.80088
32.75937
32.7716
32.77985
32.75613
32.747
32.78034
32.75876
32.74744
32.75502
32.80085
32.8646
32.81022
32.7281
32.80511
32.85768
32.79996
32.77623
32.79147
32.86962
32.88251
32.79812
32.7602
32.67144
32.70205
32.70628
32.80842
32.79645
32.81679
32.87831
32.71831
32.68948
32.80895
32.79703
32.72109
32.73321
32.79695
32.75971
32.85557
32.78519
32.81278
32.84065
32.76873
32.8457
32.8135
32.7977
33.33891
33.52532
33.5425
33.35234
33.32476
33.33453
33.34933
33.34177
33.29278
33.3106
33.33066
33.31604
33.2486
33.27191
33.29771
33.27597
33.196
33.22325
33.25139
33.2245
33.13737
33.16715
33.19576
33.16573
33.0809
33.10792
33.13503
33.10426
33.04625
33.0591
33.07413
33.04625
33.11166
33.08487
33.0238
33.01385
33.12271
33.1586
33.11159
33.08481
33.13822
33.09883
33.13917
33.1023
33.12195
33.05911
33.018
33.0699
33.1084
33.02934
32.97734
32.94027
32.98923
32.91485
32.95271
32.91832
32.95141
32.97918
32.97634
32.96921
33.00439
32.97932
32.97652
32.96721
32.93933
32.8969
32.99417
32.95684
32.88015
32.91404
32.98856
32.91864
32.96741
33.02051
33.0402
32.99772
32.91159
32.92535
33.02457
32.94578
32.94172
32.92477
32.92716
32.92234
32.87346
32.88871
32.88716
32.89651
32.89694
32.90273
32.91424
32.89257
32.91005
32.89967
32.89035
32.90675
32.90427
32.89579
32.85963
32.85461
32.83767
32.8852
32.86675
32.80595
32.7796
32.76979
32.83151
32.81933
32.78925
32.82817
32.77092
32.73737
32.79318
32.83359
32.78102
32.78546
32.74265
32.76717
32.72316
32.69806
32.80186
32.85544
32.84434
32.77198
32.84302
32.79158
32.70898
32.70466
32.73924
32.76917
32.79377
32.82961
32.83101
32.79316
32.76721
32.7464
32.72734
32.76881
32.80667
32.81872
32.77406
32.78673
32.76147
32.7945
32.71476
32.75298
32.70985
32.78422
32.78757
32.76256
32.69173
33.37913
33.2722
33.34328
33.52586
33.37914
33.27221
33.16579
33.32609
33.29286
33.32673
33.3569
33.35205
33.29287
33.32677
33.30105
33.25446
33.18439
33.35778
33.36103
33.33838
33.35073
33.29986
33.3211
33.34619
33.32512
33.24777
33.2752
33.29863
33.2689
33.18756
33.21836
33.23751
33.20525
33.17244
33.13927
33.12345
33.15579
33.05966
33.09109
33.10599
33.0731
33.00722
33.03067
33.04156
33.01308
33.05061
32.99635
32.99096
32.98204
33.07519
33.09404
33.12866
33.10045
33.11588
33.06277
33.02209
33.04871
33.08714
32.98105
32.94138
32.96226
33.00593
32.90599
32.88287
32.88599
32.92062
32.92673
32.9713
32.99796
32.9624
32.87483
32.92696
32.9716
32.95789
32.94304
33.00074
33.00572
33.03235
33.02224
33.0127
32.9761
33.01388
33.04055
33.00561
32.95287
33.00489
32.97812
32.92514
32.94905
32.92342
32.92293
32.92545
32.95845
32.8965
32.89368
32.92337
32.92087
32.90275
32.87585
32.90889
32.88503
32.88899
32.89186
32.9314
32.87343
32.87601
32.85868
32.88418
32.80235
32.80657
32.8604
32.78474
32.85765
32.83299
32.82579
32.82886
32.85268
32.88719
32.84442
32.82747
32.87
32.83261
32.77693
32.80877
32.78957
32.8792
32.86382
32.83561
32.82906
32.68857
32.71623
32.76215
32.81948
32.80612
32.75529
32.86644
32.86758
32.88196
32.88187
32.86882
32.86699
32.78664
32.74519
32.78803
32.82926
32.8564
32.82635
32.76425
32.75884
32.79634
32.71561
32.80651
32.703
32.68121
32.76568
32.76052
32.68236
33.32673
33.15726
33.16588
33.32618
33.1845
33.16667
33.1851
33.25457
33.30413
33.22009
33.31065
33.31297
33.33519
33.34674
33.36712
33.36744
33.34714
33.28418
33.31714
33.31759
33.28467
33.21661
33.2504
33.25096
33.21724
33.14923
33.18291
33.18357
33.14991
33.08226
33.1156
33.11628
33.08293
33.01956
33.04984
33.05045
33.02009
32.97645
32.99363
32.99409
32.97685
33.05516
32.97532
32.97564
33.0555
33.06016
33.10539
33.06991
33.07893
33.11372
33.03386
33.02573
32.97915
32.98608
32.93405
32.89535
32.89958
32.9397
32.87886
32.94702
32.96978
32.95039
32.88176
33.03417
33.04527
33.05191
33.04185
32.98443
33.00018
32.95863
32.93166
32.95644
33.05057
33.02688
32.98457
33.00034
32.92168
32.9167
32.89504
32.93317
32.90036
32.90896
32.8849
32.91162
32.86918
32.892
32.91076
32.89796
32.91824
32.95069
32.88362
32.91102
32.89824
32.85839
32.84287
32.91293
32.91128
32.90296
32.93523
32.87447
32.92875
32.95393
32.91567
32.8896
32.9404
32.91495
32.88764
32.86926
32.93196
32.84887
32.78756
32.78625
32.78327
32.87238
32.82518
32.829
32.82615
32.76566
32.7583
32.84114
32.77244
32.80527
32.81043
32.8205
32.86425
32.77917
32.82866
32.72431
32.73108
32.8252
32.75521
32.76178
32.84025
32.9004
32.86089
32.73363
32.83006
32.85858
32.83847
32.79769
32.73998
32.78295
32.88357
32.87355
32.87681
32.87789
32.87535
32.88395
32.73272
32.76224
32.80233
32.84184
32.82184
32.78147
32.74772
32.75124
32.77754
32.86078
32.78065
32.79911
32.74839
32.73633
32.82492
32.80016
33.37926
33.52597
33.34339
33.27233
33.29302
33.35219
33.35707
33.32694
33.35095
33.33866
33.36152
33.35814
33.32582
33.34679
33.32143
33.30023
33.26976
33.2994
33.27561
33.24825
33.20634
33.23849
33.21892
33.18819
33.15647
33.12414
33.14045
33.1736
33.07423
33.10716
33.09176
33.06029
33.01398
33.0426
33.03126
33.00774
32.98273
32.99175
32.99681
33.05104
33.07561
33.03953
33.08298
33.1162
33.10573
33.07022
33.04894
33.08739
33.02606
32.97954
32.96251
33.00616
32.9345
32.89581
32.88629
32.92091
32.94754
32.96512
32.94331
32.87513
32.87931
33.04231
33.05233
33.04608
33.03503
32.93189
32.95896
33.00083
32.98489
32.95677
32.92732
32.90417
32.93981
32.90051
32.92191
32.8923
32.9154
32.91566
32.89261
32.92995
32.90026
32.89565
32.86171
32.89926
32.86871
32.86538
32.81855
32.8412
32.8882
32.91057
32.9714
32.93295
32.88877
32.91115
32.89449
32.88499
32.87984
32.92759
32.88162
32.94016
32.91912
32.8826
32.83672
32.81032
32.86251
32.86653
32.91206
32.92157
32.89092
32.8831
32.85412
32.9017
32.90905
32.89925
32.91951
32.84302
32.92004
32.91497
32.8994
32.87983
32.88326
32.94129
32.84475
32.8506
32.87384
32.89068
32.92738
32.85739
32.86764
32.78441
32.7734
32.86547
32.78345
32.78404
32.79208
32.79549
32.69771
32.65221
32.68868
32.83639
32.85078
32.81986
32.78062
32.74237
32.79654
32.86246
32.84325
32.83939
32.84087
32.84646
32.86406
32.74293
32.71332
32.72319
32.74779
32.79211
32.77655
32.78886
32.75482
32.79127
32.70778
32.76453
32.74755
32.80427
32.85507
32.83999
32.80497
32.85599
32.76586
32.79013
32.82731
33.3524
33.54255
33.52534
33.33893
33.34183
33.34939
33.33455
33.32477
33.31611
33.33073
33.31062
33.29279
33.27192
33.24862
33.27607
33.2978
33.22464
33.2515
33.22327
33.19601
33.16594
33.19595
33.16717
33.13738
33.10447
33.13524
33.10792
33.0809
33.05911
33.04627
33.04645
33.07434
33.01403
33.02399
33.08489
33.1117
33.10248
33.06625
33.10916
33.13933
33.12889
33.1006
33.07
33.10853
33.06288
33.02217
32.98928
33.02942
32.9811
32.94142
32.91833
32.95143
32.90602
32.8829
32.93931
32.8969
32.92708
32.96268
32.99824
32.97169
33.02279
33.03292
33.00598
33.00095
33.04074
33.02313
33.05107
33.02732
33.01412
32.9561
32.91701
32.89526
32.92077
32.94552
32.88521
32.90933
32.89211
32.86925
32.91177
32.862
32.88372
32.84313
32.88393
32.89602
32.81872
32.86552
32.91076
32.88844
32.84149
32.90279
32.95082
32.91405
32.95112
32.90307
32.83985
32.82451
32.83135
32.86171
32.89076
32.87362
32.93417
32.96265
32.97603
32.92008
32.9364
32.8978
32.95633
32.93566
32.93886
32.93961
32.90481
32.96979
32.93407
32.87889
32.86358
32.95927
32.91957
32.86078
32.92565
32.83503
32.73949
32.78224
32.89292
32.87258
32.89336
32.82918
32.72983
32.82534
32.77982
32.85611
32.75133
32.75074
32.77713
32.77246
32.77736
32.88022
32.84015
32.74089
32.78431
32.79123
32.72644
32.68278
32.67071
32.74252
32.77238
32.74549
32.73794
32.75788
32.80315
32.80322
32.81546
32.82287
32.81615
32.79536
32.87909
32.70523
32.71547
32.8172
32.82469
32.76963
32.81219
32.78845
32.8153
32.79884
32.8171
32.78858
32.82133
32.87251
32.85825
32.7995
32.82175
32.87302
32.81608
32.81324
32.78953
32.82995
32.83225
32.77677
33.3103
33.49749
33.43575
33.24066
33.23453
33.22226
33.2931
33.30467
33.25619
33.27668
33.20556
33.18649
33.20519
33.23215
33.1687
33.15866
33.14915
33.17697
33.19486
33.20286
33.17681
33.14923
33.09503
33.12123
33.11935
33.07768
33.13395
33.13022
33.13665
33.1741
33.14223
33.13852
33.15803
33.12281
33.15872
33.08654
33.13025
33.14318
33.04799
33.13835
33.09894
33.00997
33.05921
33.01809
32.94075
32.97342
32.97742
32.94033
32.94546
32.91635
32.91489
32.95275
32.96725
32.96206
32.96699
32.9793
33.00449
32.96931
32.97646
32.95698
32.99432
32.91414
32.88024
33.02059
32.96753
32.91872
32.98864
33.04027
33.01282
32.97629
32.92557
33.02474
33.02726
32.97813
33.00489
32.95289
32.94909
32.92521
32.95869
32.91994
32.90614
32.92569
32.91076
32.95065
32.91815
32.89793
32.9716
32.93321
32.90319
32.93542
32.92705
32.88196
32.92795
32.87997
32.88498
32.8945
32.83207
32.86222
32.86675
32.83711
32.81082
32.80946
32.95475
32.88348
32.92021
32.93661
32.93292
32.8084
32.79625
32.79168
32.79623
32.80838
32.81474
32.88797
32.96324
32.93098
32.8652
32.8698
32.79499
32.80041
32.72763
32.79607
32.77351
32.74821
32.76714
32.69712
32.8675
32.8259
32.83769
32.86895
32.82998
32.79733
32.71452
32.79774
32.69176
32.70894
32.82542
32.73702
32.81711
32.83836
32.83414
32.8366
32.7495
32.78813
32.68503
32.649
32.64682
32.7211
32.82068
32.73372
32.76862
32.82884
32.7217
32.65127
32.66044
32.7358
32.77087
32.75836
32.72377
32.75953
32.73713
32.77394
32.80171
32.76012
32.77688
32.79826
32.80357
32.75813
32.79259
32.75895
32.79479
32.75151
32.80444
32.76473
32.73563
32.82646
32.83703
32.74083
32.73597
32.82676
32.80503
32.76537
32.79572
32.75237
33.20551
33.43495
33.53617
33.27749
33.18502
33.19832
33.26985
33.25559
33.15001
33.16793
33.237
33.21599
33.13757
33.13669
33.19439
33.17438
33.18353
33.1788
33.15343
33.12715
33.21758
33.24436
33.18361
33.17887
33.1418
33.16294
33.09822
33.07317
33.22514
33.19937
33.14191
33.16303
33.08833
33.11702
33.1747
33.14348
33.06435
33.18654
33.18067
33.17484
33.1436
33.15669
33.12327
33.12328
33.14423
33.08654
33.04818
33.057
33.09138
33.00908
32.97015
32.99264
33.0234
32.9339
32.90601
32.96827
32.97579
32.89397
32.94114
32.92909
32.94993
32.97991
33.01333
33.0174
33.01637
32.98008
33.01353
32.95863
32.93217
32.91782
32.93535
32.98341
32.97979
32.95404
32.85342
32.88566
32.92139
32.90344
33.00634
32.90085
32.92799
32.9609
32.9948
32.99767
32.99798
32.91186
32.95577
32.92251
32.92728
32.92492
32.94193
32.94607
32.89687
32.88743
32.8891
32.87403
32.89745
32.9237
32.92321
32.89745
32.88798
32.89391
32.90287
32.92086
32.92346
32.89451
32.90353
32.9077
32.89292
32.91038
32.88863
32.88478
32.90853
32.8753
32.89139
32.91318
32.91153
32.88936
32.88546
32.91536
32.95353
32.92839
32.94019
32.88937
32.94044
32.91936
32.95549
32.93221
32.9152
32.93141
32.89091
32.92155
32.91206
32.86657
32.88311
32.93441
32.96289
32.89201
32.92258
32.90478
32.93955
32.9388
32.93556
32.95612
32.96962
32.87132
32.86584
32.93179
32.96364
32.8886
32.85607
32.80919
32.83485
32.79615
32.79432
32.81017
32.91981
32.85862
32.80331
32.87447
32.87633
32.91413
32.87371
32.86673
32.82657
32.85275
32.8339
32.89232
32.83531
32.82672
32.84903
32.73546
32.77412
32.79775
32.69882
32.73451
32.81101
32.77648
32.82679
32.83844
32.84245
32.7249
32.80137
32.69476
32.80841
32.83933
32.60263
32.67035
32.80408
32.69766
32.64102
32.66806
32.8349
32.87713
32.82379
32.82038
32.74895
32.76278
32.79188
32.76787
32.78933
32.80576
32.80291
32.76401
32.73279
32.81703
32.80488
32.79387
32.79778
32.80842
32.79085
32.81893
32.81681
32.80178
32.83781
32.79787
32.76002
32.74951
32.7296
32.7241
32.76037
32.74988
32.80255
32.8387
32.82016
32.81793
33.35672
33.19237
33.27179
33.53505
33.35686
33.19251
33.1622
33.40446
33.18809
33.17687
33.2554
33.26701
33.18824
33.17702
33.14072
33.15467
33.16023
33.13959
33.21749
33.23835
33.16039
33.13975
33.09946
33.12194
33.1162
33.09117
33.16938
33.19415
33.11637
33.09135
33.04678
33.07414
33.06562
33.04099
33.11851
33.14395
33.0658
33.04117
32.99038
33.01838
33.0195
33.00599
33.07339
33.09409
32.96503
33.01968
33.00616
32.94629
33.01731
33.0608
33.06806
33.06647
33.01748
33.06097
33.00563
32.97948
32.94391
33.01729
33.05069
33.03979
33.01726
32.98521
32.95374
32.94291
32.98061
32.87916
32.90744
32.93609
32.93079
32.90298
32.86932
32.91471
32.8859
32.87988
32.90343
32.85203
32.81792
32.96088
32.9422
32.88015
32.9037
32.85063
32.85514
32.78904
32.77454
32.91556
32.89702
32.85094
32.85543
32.88151
32.84594
32.8646
32.82967
32.87611
32.80711
32.79845
32.84089
32.84864
32.85264
32.88497
32.92922
32.88509
32.85305
32.88541
32.84264
32.84962
32.87607
32.90474
32.888
32.87179
32.88343
32.82666
32.85221
32.80727
32.7842
32.81546
32.90509
32.84609
32.82724
32.85276
32.8372
32.87185
32.88883
32.86381
32.83781
32.87253
32.86912
32.83645
32.83936
32.90036
32.8816
32.88643
32.8708
32.89717
32.90313
32.91466
32.90112
32.88232
32.88972
32.89499
32.90351
32.90612
32.89052
32.89586
32.89209
32.8702
32.90211
32.85914
32.86613
32.88475
32.83737
32.85426
32.87643
32.85911
32.86009
32.86703
32.80205
32.78456
32.86025
32.8063
32.80301
32.78557
32.78362
32.77039
32.83208
32.84921
32.78795
32.82939
32.85816
32.85518
32.82599
32.8288
32.82505
32.84115
32.75834
32.76565
32.85465
32.90248
32.82663
32.84247
32.91959
32.9409
32.88291
32.87945
32.89899
32.91454
32.93498
32.87986
32.92181
32.94294
32.78201
32.73924
32.83469
32.92529
32.86048
32.77336
32.69699
32.76704
32.7481
32.73085
32.71729
32.77573
32.69949
32.71218
32.83029
32.82655
32.8667
32.87365
32.91406
32.87628
32.77406
32.71758
32.83597
32.82736
32.77247
32.77152
32.68759
32.67321
32.68759
32.77152
32.78764
32.6989
32.67513
32.61551
32.65557
32.63832
32.73352
32.76399
32.70576
32.73785
32.72913
32.70746
32.55867
32.66898
32.62284
32.51991
32.49709
32.72747
32.70102
32.56283
32.67293
32.7362
32.60664
32.54914
32.61324
32.74403
32.75556
32.79429
32.8539
32.74838
32.74007
32.804
32.72066
32.80208
32.81603
32.80673
32.72339
32.70392
32.8004
32.76734
32.69315
32.76266
32.63586
32.62224
32.70704
32.70512
32.79572
32.77254
32.77125
32.74993
32.79656
32.77305
32.69464
32.76446
32.67339
32.75434
32.70106
32.72024
32.74801
32.71062
32.74362
32.72034
32.76618
32.75049
32.74372
32.7378
32.76799
32.75208
32.74549
32.72236
32.67473
32.75534
32.69422
32.64019
32.68068
32.71288
32.71881
32.74973
32.74959
32.73078
32.68022
32.74555
32.72708
32.65708
32.68082
32.74627
32.75095
32.75096
32.72076
32.69603
33.52451
33.26224
33.19229
33.45242
33.25286
33.2361
33.20191
33.19378
33.215
33.19128
33.22112
33.21848
33.16497
33.13593
33.17398
33.20034
33.10491
33.07318
33.11294
33.14443
33.04197
33.01191
33.04855
33.08069
32.98336
32.95265
32.98517
33.01678
32.9164
32.87806
32.9184
32.95286
32.84114
32.81042
32.84429
32.88154
32.79726
32.82804
32.77691
32.80989
32.82687
32.82772
32.88637
32.89215
32.82721
32.82809
32.73504
32.74751
32.86098
32.80244
32.84553
32.86744
32.88452
32.80609
32.8367
32.84908
32.83456
32.73778
32.77311
32.80347
32.76705
32.75796
32.7175
32.72921
32.70141
32.73843
32.8479
32.83878
32.84228
32.79693
32.85584
32.86804
32.8428
32.79742
32.82693
32.80113
32.78835
32.87275
32.78765
32.85823
32.81684
32.81557
32.84774
32.74596
32.77542
32.77771
32.7797
32.76139
32.79907
32.81902
32.78045
32.76211
32.80612
32.8171
32.85646
32.84634
32.80691
32.81796
32.81645
32.82493
32.80086
32.82428
32.83248
32.82051
32.82437
32.82828
32.86491
32.86214
32.82534
32.82919
32.81747
32.80077
32.83475
32.84944
32.81849
32.80188
32.79382
32.80879
32.81573
32.77152
32.7593
32.74692
32.75605
32.77973
32.80664
32.78034
32.7573
32.78091
32.79313
32.73732
32.77084
32.82811
32.7892
32.85263
32.82739
32.84432
32.88714
32.82911
32.81314
32.78667
32.74372
32.75202
32.85419
32.77357
32.80656
32.81012
32.87127
32.82034
32.75507
32.825
32.73094
32.7242
32.82857
32.76167
32.8461
32.85203
32.75751
32.82735
32.77327
32.78431
32.86757
32.78396
32.78334
32.86531
32.89429
32.87406
32.78618
32.86803
32.75128
32.85603
32.77974
32.7724
32.77709
32.75069
32.86883
32.8274
32.75455
32.85913
32.71448
32.73698
32.8254
32.70892
32.69173
32.7977
32.85402
32.83537
32.69553
32.80128
32.73545
32.811
32.73449
32.6988
32.79774
32.7741
32.6761
32.61654
32.61586
32.68349
32.78216
32.7176
32.58335
32.70703
32.73908
32.7126
32.58915
32.50143
32.49116
32.50143
32.58914
32.62125
32.74682
32.75191
32.72588
32.63566
32.66057
32.71746
32.74908
32.71576
32.74277
32.78952
32.71256
32.70653
32.66493
32.66583
32.67943
32.70985
32.59668
32.63103
32.64915
32.62966
32.62036
32.69802
32.71389
32.71773
32.66815
32.70189
32.71799
32.69543
32.69868
32.61005
32.63137
32.70986
32.69315
32.72807
32.68463
32.7125
32.69635
32.65488
32.71625
32.69401
32.73914
32.65812
32.7115
32.71611
32.70638
32.73866
32.73948
32.72702
32.74064
32.7526
32.74034
32.72783
32.70799
32.7404
32.71384
32.71835
32.74185
32.66071
32.69883
32.72917
32.74699
32.73121
32.66234
32.6622
32.70246
32.6841
32.69224
32.67979
32.70814
32.69311
32.66316
32.97829
33.18409
33.17406
32.97358
33.01436
32.98811
32.98637
33.01294
33.12943
33.09231
33.11545
33.17097
33.12157
33.18128
33.12949
33.09238
33.194
33.18518
33.1847
33.13162
33.1697
33.15722
33.124
33.11121
33.15003
33.08897
33.05396
33.03366
33.07199
32.99682
33.01993
32.98723
32.96182
32.95515
32.92181
32.89382
32.92804
32.88588
32.84804
32.82058
32.85792
32.81023
32.77449
32.74781
32.78321
32.71695
32.74304
32.71919
32.6946
32.70508
32.70745
32.71367
32.68948
32.86185
32.77932
32.81746
32.80376
32.8751
32.78803
32.82946
32.83659
32.78783
32.73694
32.69917
32.71063
32.74332
32.79255
32.73779
32.71918
32.81841
32.86038
32.81291
32.79843
32.79156
32.80807
32.76467
32.76008
32.83452
32.82776
32.76533
32.76079
32.74947
32.73757
32.70577
32.79986
32.77089
32.77743
32.80602
32.82956
32.84461
32.77696
32.71955
32.84615
32.77954
32.82798
32.74718
32.72813
32.72243
32.82723
32.7673
32.71855
32.73348
32.74878
32.80136
32.79396
32.71983
32.70231
32.83239
32.84108
32.78139
32.75991
32.80606
32.79094
32.82606
32.83479
32.78233
32.80655
32.86596
32.85793
32.80182
32.69801
32.72313
32.77196
32.84432
32.85542
32.82902
32.83555
32.86379
32.87918
32.78956
32.84022
32.73361
32.86086
32.90035
32.69061
32.71737
32.84306
32.73665
32.71787
32.75753
32.79757
32.69994
32.75308
32.80026
32.7423
32.76301
32.77735
32.74089
32.84015
32.8802
32.745
32.69085
32.7813
32.74519
32.71953
32.78358
32.81711
32.74951
32.83661
32.83414
32.83835
32.67374
32.70687
32.82179
32.75495
32.68617
32.83843
32.82679
32.77648
32.72489
32.84244
32.70986
32.73629
32.7066
32.67199
32.6061
32.6315
32.5199
32.62283
32.66896
32.55865
32.49707
32.66056
32.63564
32.72585
32.75189
32.74681
32.71746
32.7573
32.66003
32.6633
32.6438
32.68214
32.63479
32.61394
32.61393
32.63478
32.64658
32.60077
32.62293
32.64914
32.66685
32.65442
32.58259
32.56714
32.63947
32.65142
32.61805
32.68172
32.68114
32.65866
32.68748
32.68802
32.60863
32.62465
32.62477
32.68839
32.52995
32.62914
32.69338
32.73592
32.61771
32.66807
32.67791
32.61967
32.57674
32.65275
32.66279
32.65385
32.6824
32.67371
32.68333
32.6455
32.65999
32.66309
32.67782
32.68825
32.6614
32.69594
32.71436
32.68656
32.70816
32.69954
32.71812
32.64998
32.66433
32.68577
32.67666
32.71613
32.72791
32.72628
32.71726
32.72894
32.73858
32.68781
32.67886
32.68488
32.71502
32.67197
33.3419
33.2291
33.10427
33.11641
33.11635
33.11271
33.13144
33.11586
33.13518
33.20477
33.05068
33.0924
33.14172
33.17661
33.12549
32.99901
33.02458
33.08603
33.04828
32.94514
32.97244
33.01177
32.97582
32.88794
32.91714
32.94007
32.90478
32.82423
32.85703
32.87009
32.83572
32.75996
32.79065
32.80136
32.76716
32.71514
32.73586
32.73399
32.70424
32.68859
32.697
32.68422
32.68575
32.80734
32.76041
32.77427
32.79507
32.86484
32.82871
32.84919
32.80014
32.84199
32.8299
32.76837
32.74863
32.80152
32.71738
32.66836
32.66428
32.69756
32.6295
32.63305
32.77263
32.83848
32.81462
32.82375
32.7131
32.87728
32.77046
32.71713
32.80562
32.77685
32.81399
32.82146
32.81063
32.77736
32.76704
32.71379
32.72368
32.77279
32.82301
32.71242
32.75723
32.7677
32.73275
32.7351
32.70617
32.71169
32.7955
32.75669
32.74376
32.81829
32.74336
32.73177
32.83009
32.86458
32.84556
32.74202
32.72594
32.74874
32.83943
32.79615
32.79638
32.76003
32.82241
32.68547
32.74734
32.73908
32.68411
32.70818
32.77623
32.79996
32.85769
32.88252
32.86962
32.79146
32.80029
32.79356
32.71113
32.73051
32.70861
32.76439
32.82197
32.84748
32.83375
32.79563
32.77032
32.83267
32.8615
32.87999
32.88511
32.87175
32.85093
32.83941