/*--------------------------------*- C++ -*----------------------------------*\
| =========                 |                                                 |
| \\      /  F ield         | OpenFOAM: The Open Source CFD Toolbox           |
|  \\    /   O peration     | Version:  5.x                                   |
|   \\  /    A nd           | Web:      www.OpenFOAM.org                      |
|    \\/     M anipulation  |                                                 |
\*---------------------------------------------------------------------------*/
FoamFile
{
    version     2.0;
    format      ascii;
    class       volScalarField;
    location    "100/tissue";
    object      T;
}
// * * * * * * * * * * * * * * * * * * * * * * * * * * * * * * * * * * * * * //

dimensions      [0 0 0 1 0 0 0];

internalField   nonuniform List<scalar> 
87936
(
33.00004
33.30202
33.32146
33.25265
32.9881
33.28105
33.30093
33.23085
32.96969
33.23733
33.25661
33.18617
32.96261
33.17841
33.1959
33.1247
33.10477
33.12382
32.93155
33.02413
33.04807
32.83813
32.93866
32.9768
32.77662
32.75472
32.91598
32.73205
33.46576
33.95388
34.33941
34.6565
34.71415
34.52274
34.21607
33.53746
33.13931
33.43855
33.91037
34.30655
34.61532
34.67339
34.48234
34.17988
33.52143
33.16135
33.27392
33.79549
34.24063
34.53089
34.58977
34.39755
34.10085
33.48639
33.13566
33.62986
34.16012
34.41831
34.47864
34.28591
33.99118
33.47813
33.03342
33.49275
34.06803
34.28882
34.35162
34.1681
33.871
33.41213
32.93712
33.36995
33.9463
34.14945
34.21673
34.0398
33.74405
33.31934
32.8438
33.25626
33.8044
34.00117
34.07236
33.91255
33.6048
33.21445
32.75208
33.15027
33.65119
33.85288
33.90684
33.77906
33.44636
33.09508
32.66825
33.0617
33.49015
33.69532
33.73242
33.62051
33.22535
32.95454
33.00623
33.33042
33.54288
33.58167
33.46289
33.07891
32.73975
32.88544
33.15454
33.39454
33.4335
33.3087
32.95014
32.58664
32.74346
32.96776
33.25287
33.29373
33.14978
32.87472
32.46337
32.60313
32.83414
33.10866
33.1575
32.93723
32.75105
32.38384
32.38531
32.7361
32.94078
33.00814
32.78889
32.61708
32.26883
32.57169
32.72915
32.77111
32.6546
32.46502
32.48253
32.60117
32.6274
32.55643
32.26456
32.23866
32.34903
32.1457
33.77574
34.64822
35.29035
35.91054
36.15667
36.1668
36.00743
35.56077
35.0136
34.2979
33.4053
33.74796
34.59882
35.22904
35.80371
36.0231
36.03147
35.89699
35.48927
34.9627
34.2765
33.38304
33.69083
34.5209
35.1165
35.63191
35.82397
35.83194
35.71321
35.36036
34.87358
34.2309
33.34145
33.61527
34.417
34.98693
35.47004
35.61363
35.62342
35.55335
35.21296
34.76897
34.14689
33.28005
33.52815
34.30176
34.8537
35.24599
35.45718
35.48755
35.40584
35.06379
34.65099
34.04103
33.20232
33.43381
34.17912
34.72011
35.07597
35.28556
35.31259
35.241
34.91068
34.52294
33.92006
33.11191
33.3354
34.042
34.57552
34.91498
35.13081
35.13649
35.04459
34.75499
34.36415
33.76949
33.00495
33.23419
33.89344
34.43139
34.76265
34.9456
34.96573
34.86956
34.60544
34.19821
33.536
32.86186
33.15988
33.75607
34.29081
34.61542
34.78586
34.80288
34.72279
34.46353
34.03161
33.38176
32.74621
33.04385
33.63477
34.1501
34.4681
34.65523
34.67568
34.58326
34.32863
33.88106
33.23017
32.66553
32.85562
33.49959
33.99385
34.32123
34.5218
34.54811
34.44067
34.1879
33.7354
33.09699
32.69935
33.31201
33.82895
34.18378
34.3798
34.41287
34.29446
34.04679
33.58116
32.97883
32.53979
33.09695
33.65911
34.03944
34.22626
34.26396
34.14482
33.88118
33.43215
32.88905
32.44055
32.93037
33.50507
33.87548
34.07181
34.10689
33.99384
33.70705
33.28786
32.77164
32.77609
33.34911
33.70142
33.90633
33.93681
33.82426
33.53388
33.09601
32.55065
32.71633
33.15032
33.4848
33.6891
33.71892
33.606
33.34424
32.8679
32.37966
32.28277
32.71964
33.1539
33.32003
33.34276
33.24802
32.98724
32.61468
32.42585
32.68047
32.93354
32.97091
32.85255
32.54569
32.13126
31.98223
32.34152
32.44256
32.47587
32.46585
32.23447
32.07477
32.11176
31.97258
33.33475
34.26771
35.15885
36.01331
36.38898
35.7492
34.65152
33.72484
33.31711
34.1961
35.10972
35.90858
36.20684
35.67246
34.60841
33.7154
33.27046
34.07185
35.01579
35.734
35.98765
35.54906
34.52539
33.70958
33.95751
34.89994
35.5552
35.80155
35.39065
34.42341
33.57725
33.84202
34.77755
35.42731
35.65514
35.24813
34.3147
33.45113
33.72335
34.65049
35.26859
35.55568
35.43635
35.08229
34.2017
33.32867
33.60177
34.51578
35.13798
35.42139
35.27936
34.87608
34.08128
33.21198
33.48235
34.38242
35.00558
35.30387
35.14057
34.69093
33.95996
33.09923
33.36147
34.24853
34.87731
35.19416
35.01972
34.54441
33.83667
32.98276
33.23891
34.0963
34.73862
35.01566
35.13436
34.88831
34.40429
33.70061
32.86245
33.12236
33.92314
34.59803
34.88765
35.02646
34.77586
34.25625
33.53244
32.73935
33.03655
33.76466
34.38356
34.78378
34.9823
34.89659
34.65946
34.10957
33.35246
32.63274
32.86366
33.61396
34.22531
34.65517
34.83727
34.901
34.76686
34.52098
33.96646
33.19347
32.71132
33.4622
34.07977
34.54766
34.73587
34.8554
34.77477
34.65563
34.34196
33.81182
33.04067
32.55188
33.28544
33.92616
34.4251
34.64436
34.72564
34.72256
34.70136
34.5471
34.16432
33.63717
32.89622
32.43439
33.06639
33.73232
34.18171
34.45435
34.57172
34.55884
34.54111
34.37745
33.96235
33.42938
32.82272
32.72401
33.35201
33.81199
34.2031
34.34036
34.34226
34.30194
34.00971
33.62317
33.01565
32.39298
32.33831
32.905
33.42
33.76707
33.92705
33.94582
33.86354
33.62985
33.22564
32.64663
32.51711
33.00103
33.35732
33.52395
33.54517
33.46547
33.19169
32.75886
32.23648
32.06415
32.52829
32.91495
33.08186
33.11684
33.01949
32.68744
32.38956
32.03789
32.39386
32.56746
32.67939
32.50387
32.30508
31.93202
32.16136
32.21783
32.05695
34.37416
35.67658
36.41298
36.00621
35.0172
33.7359
34.29649
35.59316
36.23172
35.90039
34.95794
33.70818
34.17641
35.4454
36.01316
35.72609
34.8526
33.662
34.09672
35.27893
35.79961
35.54359
34.73598
33.58313
33.99999
35.122
35.66618
35.40579
34.60778
33.48537
33.88583
34.91813
35.48933
35.24513
34.46553
33.3845
33.76724
34.73696
35.35922
35.11108
34.3258
33.28055
33.64368
34.58951
35.24559
34.98244
34.18432
33.17067
33.50807
34.45101
35.13078
34.86097
34.03004
33.0501
33.37576
34.31882
34.96728
35.14007
34.73762
33.88579
32.93235
33.25185
34.1841
34.82132
35.01055
34.60513
33.7417
32.82655
33.13308
34.03467
34.7193
34.93687
34.46887
33.56679
32.71803
32.95333
33.88827
34.58702
34.81232
34.26445
33.38958
32.81222
33.73965
34.47152
34.82347
34.67282
34.10955
33.24923
32.65841
33.56373
34.33967
34.74515
34.55436
33.95651
33.08913
32.52498
33.2977
34.09566
34.54739
34.72312
34.38983
33.74979
32.946
32.99018
33.74951
34.30436
34.61136
34.4427
34.09489
33.39107
32.60675
32.70083
33.37175
33.99734
34.28782
34.55965
34.43269
34.16441
33.67758
32.97369
32.25185
32.23834
32.91955
33.54537
33.98901
34.21511
34.34642
34.31675
34.31335
34.13827
33.77068
33.27365
32.59723
32.50159
33.10257
33.54962
33.85661
34.06319
34.0753
34.01029
33.71541
33.35844
32.79886
32.15251
32.06482
32.62675
33.13856
33.42444
33.60014
33.63015
33.5326
33.28051
32.9344
32.44436
32.13111
32.59644
32.93076
33.10005
33.15071
33.04628
32.81263
32.41215
32.10734
32.37196
32.5197
32.63434
32.48289
32.30698
31.9195
31.85756
32.01952
32.07354
31.98734
34.24674
35.64083
36.24172
34.9043
33.63856
34.22147
35.56779
36.09428
34.87255
33.61134
34.16309
35.45409
35.90583
34.81252
33.55845
34.08119
35.31604
35.72749
34.72738
33.48473
33.98366
35.19685
35.58563
34.62425
33.39701
33.87678
35.05902
35.43188
34.51056
33.30355
33.75677
34.92121
35.26836
34.38575
33.20697
33.61921
34.78673
35.3055
35.07914
34.23788
33.086
33.47584
34.54882
35.18381
34.93493
34.05834
32.9671
33.33799
34.37856
35.07195
34.80412
33.88727
32.87112
33.15583
34.22085
34.96493
34.67207
33.69138
33.02412
34.06997
34.88316
34.55509
33.50528
32.90083
33.94524
34.76103
34.43666
33.38798
32.77741
33.82507
34.59857
34.80834
34.31843
33.26739
32.64428
33.6455
34.48019
34.72129
34.10701
33.1217
32.4748
33.36159
34.30516
34.58577
33.89827
32.97409
33.07328
34.04002
34.55312
34.30007
33.59158
32.64774
32.63692
33.60181
34.22694
34.45987
33.98991
33.12523
32.30115
33.12911
33.92041
34.31782
34.45176
34.14554
33.54534
32.76991
32.7315
33.45358
34.01203
34.35286
34.18065
33.81672
33.14875
32.35255
32.25527
32.93519
33.58316
33.99081
34.18815
34.30611
34.30411
34.26847
34.10392
33.85234
33.32813
32.66494
32.5109
33.10017
33.55865
33.86169
33.99258
34.00172
33.95754
33.69357
33.35643
32.81351
32.14784
31.9995
32.55628
33.0342
33.34895
33.49965
33.51984
33.45484
33.19711
32.75593
32.34809
31.99762
32.49115
32.81216
32.97187
32.9934
32.91033
32.62499
32.31238
31.90915
32.26437
32.37412
32.3973
32.30259
32.08698
31.82307
31.90405
33.86522
35.56375
36.15562
34.69563
33.84014
35.50046
36.02771
34.66256
33.79108
35.38124
35.84647
34.59414
33.72316
35.24242
35.67224
34.49952
33.64321
35.10441
35.53411
34.38385
33.55534
34.95842
35.37116
34.23794
33.44657
34.70253
35.19655
33.99861
33.35394
34.52956
35.30291
35.0188
33.8698
33.23897
34.38014
35.19816
34.89494
33.74102
33.11891
34.23764
35.0854
34.76767
33.63571
33.00679
34.12575
34.96608
34.6424
33.54151
32.88718
34.01387
34.8869
34.53732
33.42467
32.77394
33.88951
34.76882
34.42079
33.29509
33.70345
34.59866
34.84186
34.28719
33.09857
33.43657
34.47583
34.74655
34.05536
32.93346
33.29473
34.29646
34.61378
33.85301
32.82084
33.01465
34.02609
34.59943
34.33727
33.55769
32.47533
32.63193
33.61714
34.38268
34.06564
33.14207
32.23291
33.17761
34.04865
34.32976
33.65689
32.76315
32.78847
33.63305
34.17881
34.37802
33.96969
33.24605
32.34831
32.32559
33.18956
33.86465
34.29623
34.08451
33.5658
32.78152
32.70291
33.4284
33.95728
34.2696
34.10609
33.75605
33.1209
32.29687
32.16346
32.87753
33.50036
33.90507
34.0939
34.21545
34.21473
34.19419
33.98932
33.74432
33.25168
32.59552
32.37118
33.00061
33.429
33.72834
33.87774
33.88231
33.84374
33.55066
33.2367
32.68192
32.01588
32.38858
32.85346
33.13374
33.32895
33.36561
33.24878
33.0025
32.61015
32.05431
32.25391
32.50754
32.72212
32.76016
32.59127
32.37163
31.94679
31.87548
32.06383
32.12286
31.99969
33.665
34.9482
36.34769
35.72333
34.27249
33.63661
34.91085
36.19582
35.64824
34.24824
33.5855
34.83627
35.99549
35.51959
34.19263
33.52148
34.74392
35.7928
35.37177
34.11709
33.44459
34.64892
35.66031
35.25416
34.0279
33.34617
34.54933
35.50776
35.12146
33.91737
33.26553
34.44578
35.38481
35.00831
33.7951
34.33269
35.26005
34.89041
33.62833
34.20756
35.16074
34.77914
33.5017
34.04404
35.04312
34.648
33.37503
33.79996
34.91925
34.50784
33.23643
33.66172
34.77544
34.32325
33.12134
33.52167
34.60702
34.91308
34.13015
32.99572
33.40351
34.49382
34.81231
33.99054
32.85761
33.28162
34.38822
34.74505
33.87432
32.72203
33.08097
34.21591
34.5757
33.69943
32.77477
33.84437
34.58317
34.28925
33.30368
32.39765
33.51955
34.37631
34.02355
32.97832
33.08932
34.03311
34.35156
33.61575
32.58781
32.63368
33.59571
34.29203
34.00815
33.14545
32.20561
33.10792
33.96106
34.23205
33.68057
32.74308
32.67754
33.5258
34.14453
33.86944
33.15105
32.25109
32.13342
32.9844
33.72805
34.19155
33.95224
33.39737
32.63133
32.52494
33.23093
33.76148
34.10602
34.16573
33.93288
33.49446
32.85538
32.08689
31.95177
32.65671
33.23302
33.69972
33.89395
34.01518
34.05238
33.96961
33.78371
33.45479
32.98538
32.33697
32.01954
32.62978
33.10583
33.39417
33.53649
33.55464
33.49098
33.27282
32.91135
32.37373
31.96224
32.46408
32.77374
32.91795
32.95419
32.86406
32.59525
32.24717
31.81345
32.1134
32.25343
32.28138
32.21979
31.98681
33.54581
34.64987
36.1637
35.54083
33.90145
33.52221
34.6148
36.04072
35.47783
33.87918
33.4745
34.53472
35.86197
35.35738
33.82752
33.40418
34.39864
35.66382
35.1937
33.75831
33.30895
34.24854
35.51947
35.05484
33.65792
33.21191
34.11385
35.35399
34.81305
33.55215
33.12077
34.0009
35.21785
34.63602
33.43117
33.89926
35.08656
34.50812
33.28718
33.7826
34.95984
34.38594
33.15768
33.65494
34.79982
35.14752
34.261
33.03385
33.53013
34.67225
35.0187
34.1384
32.91732
33.41041
34.56862
34.93552
34.00087
32.81269
33.22615
34.44442
34.83028
33.77349
33.08729
34.32015
34.72638
33.62922
32.92887
34.13365
34.6051
33.47523
32.78209
33.91029
34.75083
34.39979
33.34893
33.52624
34.51499
34.12813
32.97543
33.2005
34.2089
34.52526
33.76042
32.64708
32.81203
33.9152
34.2878
33.35395
32.42726
33.50759
34.26345
33.94019
33.00412
33.04581
33.90731
34.22652
33.52854
32.54257
32.53482
33.47626
34.17303
33.86489
33.03545
32.05768
32.98223
33.79661
34.0874
33.42713
32.58723
32.52742
33.33545
33.90527
34.13894
33.67957
32.91133
32.01882
32.75279
33.42879
33.90793
34.1175
33.72122
33.13909
32.30707
32.13082
32.82301
33.42773
33.83437
34.04431
34.13138
34.12993
34.10211
33.95597
33.67584
33.18052
32.54428
32.27156
32.88065
33.29609
33.53905
33.74113
33.75412
33.68525
33.43611
33.06873
32.57168
31.90965
32.2304
32.57998
32.94259
33.11651
33.13094
33.05133
32.81728
32.42426
31.88716
31.88
32.2102
32.35154
32.36483
32.31237
32.12552
33.58777
34.42781
35.61139
36.30227
34.86867
33.9526
33.568
34.40218
35.54894
36.15912
34.83491
33.93378
33.52689
34.34838
35.43416
35.96591
34.76616
33.889
33.46656
34.27674
35.30027
35.77455
34.68
33.82486
33.39067
34.19417
35.17581
35.63621
34.58613
33.74625
33.30252
34.09637
35.0555
35.5122
34.47477
33.65505
33.2055
33.98096
34.92751
35.39691
34.3396
33.55625
33.10021
33.82635
34.78863
35.24554
34.20459
33.44947
32.98964
33.64696
34.6163
35.09837
34.05802
33.31874
33.50531
34.44764
34.97643
33.91385
33.1753
33.37089
34.30396
34.84619
33.77358
33.04242
33.24506
34.15925
34.73537
33.63147
32.91295
33.12049
34.02903
34.93545
34.58029
33.42592
32.78543
32.98043
33.91011
34.83205
34.47078
33.29252
32.67082
32.81142
33.75918
34.7429
34.34933
33.13482
32.65321
33.53819
34.57711
34.1584
33.00051
33.24
34.27581
34.62604
33.77761
32.64076
32.8675
34.02879
34.43509
33.39737
32.47143
33.63205
34.43471
34.08875
33.07779
33.21706
34.1752
33.7789
32.65154
32.75484
33.80926
34.1784
33.28064
32.31103
33.38677
34.155
33.81677
32.88236
32.87034
33.77201
34.09911
33.35175
32.35382
32.33247
33.2896
33.93703
34.18303
33.66379
32.82006
32.75368
33.55906
34.09209
33.81253
33.16481
32.25988
32.11595
32.9146
33.6198
34.07757
33.84511
33.29177
32.58081
32.38336
33.04504
33.61466
33.93124
34.11477
34.04829
33.79708
33.33461
32.71348
31.92617
32.42972
32.98858
33.38812
33.69832
33.81994
33.80041
33.78974
33.60746
33.24481
32.68609
32.05193
32.27258
32.65864
33.02191
33.1495
33.15134
33.11625
32.90167
32.51985
31.97934
32.03353
32.28175
32.39458
32.41641
32.35074
32.1569
31.82236
33.64138
34.48323
35.39904
36.3341
35.92884
34.94344
33.98266
33.30226
33.62826
34.46121
35.34794
36.18982
35.84137
34.91029
33.9743
33.30059
33.58406
34.41098
35.25388
35.99894
35.69977
34.84281
33.93895
33.51397
34.33766
35.14265
35.81052
35.54486
34.75412
33.87594
33.43049
34.24788
35.02934
35.68899
35.42898
34.65379
33.79314
33.33712
34.14642
34.91013
35.55217
35.29489
34.54434
33.69773
33.23656
34.03617
34.78424
35.43214
35.17336
34.42698
33.59373
33.13086
33.91674
34.64499
35.30171
35.04576
34.29698
33.48347
33.02227
33.77871
34.49757
35.18734
34.91424
34.14519
33.37059
32.91182
33.56576
34.35928
35.05691
34.78132
33.98705
33.25538
33.43858
34.20784
34.91637
34.53501
33.84846
33.09859
33.30469
34.07249
34.82114
34.39027
33.71615
32.96713
33.17734
33.94012
34.70483
34.25922
33.58551
32.83805
33.05499
33.7874
34.57027
34.92944
34.12499
33.42107
32.71393
32.89544
33.64644
34.46792
34.84194
33.99308
33.22907
32.58191
32.76135
33.46146
34.28103
34.69952
33.78369
33.09083
33.08807
33.95037
34.4276
33.44645
32.74573
32.70561
33.61826
34.5205
34.15317
33.04754
33.24464
34.26501
33.86254
32.63334
32.81576
33.92784
34.30938
33.37985
32.39242
33.53092
34.33387
33.97279
33.00784
33.07975
33.99627
34.28829
33.64207
32.50342
32.54423
33.63124
34.24641
33.95177
33.07574
33.03865
33.8947
34.17566
33.58051
32.53809
32.49884
33.51843
34.10724
33.79907
32.9797
32.88746
33.6525
34.11623
33.89732
33.27992
32.3932
32.27407
33.16274
33.73832
34.09294
33.93079
33.5138
32.72247
32.51751
33.1814
33.67881
33.99358
34.08984
33.85135
33.48697
32.84087
32.04879
32.51389
33.03258
33.44644
33.73263
33.82137
33.80283
33.78487
33.62868
33.27844
32.76932
32.11864
32.33116
32.83181
33.07757
33.20699
33.23689
33.14966
32.94551
32.55483
32.02206
32.08115
32.29771
32.42502
32.45392
32.36852
32.16436
31.81535
33.71285
34.60183
35.45983
36.36509
35.95615
35.01841
34.18572
33.34307
33.7042
34.55323
35.40262
36.21236
35.86659
34.97289
34.1486
33.32515
33.65692
34.47525
35.30061
36.01567
35.72092
34.89229
34.01593
33.30357
33.56514
34.38523
35.18217
35.81862
35.561
34.79368
33.93377
33.45834
34.28166
35.0622
35.69638
35.44031
34.68487
33.82815
33.35444
34.17318
34.93995
35.55557
35.30295
34.57106
33.72231
33.25051
34.06158
34.81496
35.41415
35.17157
34.45406
33.61494
33.14447
33.94635
34.68439
35.24475
35.41989
35.02369
34.33278
33.5047
33.03645
33.82527
34.54314
35.10083
35.32311
34.84537
34.20257
33.39161
32.9285
33.68519
34.37883
34.99217
35.22454
34.6901
34.04469
33.27816
32.8144
33.47645
34.24137
34.88877
35.10867
34.56951
33.88824
33.15698
33.34944
34.11705
34.77732
35.01747
34.44983
33.75833
33.00697
33.20977
33.98778
34.65222
34.89242
34.32113
33.62408
32.86414
33.07598
33.84023
34.46782
34.78684
34.16712
33.47634
32.73185
32.93377
33.66931
34.33492
34.88042
34.6805
34.01632
33.25309
32.58838
32.79358
33.49399
34.16793
34.74097
34.51695
33.84332
33.12023
32.42653
33.11626
33.84682
34.51578
34.23175
33.50889
32.77967
32.76193
33.46612
34.21919
34.6074
33.78272
33.08285
32.38948
32.35476
33.03242
33.93379
34.35984
33.39207
32.72139
32.63974
33.52638
34.43157
34.04514
32.96667
32.29788
33.13551
34.12765
33.71487
32.523
32.65824
33.75568
34.14718
33.1943
33.21654
34.14702
33.75696
32.6862
32.78417
33.72457
34.08088
33.32251
32.18124
32.20614
33.2792
34.00176
33.67318
32.80864
32.72501
33.58233
34.12934
33.86937
33.20866
32.17342
32.03253
32.96828
33.74995
34.04726
33.46921
32.61495
32.33063
33.1972
33.76103
34.01365
33.52639
32.81146
32.54821
33.1957
33.68183
34.0408
33.84728
33.48635
32.8657
32.09573
32.52078
33.03913
33.54853
33.75733
33.8347
33.87804
33.81584
33.65812
33.29219
32.77881
32.12266
32.31971
32.81255
33.06405
33.18977
33.20748
33.13612
32.93113
32.54177
32.01203
31.90889
32.24285
32.36787
32.38344
32.32654
32.11015
33.64145
34.60189
35.50347
36.3838
35.9863
35.0573
34.12232
33.62836
34.55327
35.44203
36.22958
35.89155
35.00758
34.02798
33.58427
34.4753
35.33237
36.03576
35.75108
34.91577
33.97723
33.51429
34.38568
35.20682
35.84271
35.59095
34.8104
33.90176
33.43088
34.28241
35.08053
35.70337
35.45713
34.69579
33.81262
33.33754
34.17385
34.95497
35.5612
35.31657
34.57924
33.71315
33.23697
34.06201
34.83149
35.4263
35.18761
34.46242
33.60749
33.13122
33.94674
34.70732
35.2956
35.05506
34.34386
33.49688
33.02254
33.82568
34.58039
35.15763
35.31652
34.92242
34.22034
33.38297
32.91199
33.68553
34.42794
35.00833
35.21188
34.7476
34.07102
33.27107
33.47658
34.26465
34.89862
35.12158
34.59373
33.90068
33.126
33.34957
34.13528
34.80075
35.03164
34.47187
33.77009
32.98923
33.20987
34.00562
34.67583
34.91323
34.34571
33.63423
32.85389
33.07608
33.8626
34.55161
34.95324
34.76333
34.21024
33.48558
32.7257
32.93388
33.68624
34.35904
34.88142
34.65836
34.04098
33.26021
32.58589
32.79361
33.52262
34.18124
34.74807
34.48282
33.86849
33.12824
32.42672
33.12615
33.85374
34.41862
34.66654
34.1532
33.52161
32.79955
32.77564
33.477
34.09493
34.63168
34.39993
33.80368
33.09274
32.39958
32.36358
33.05614
33.75781
34.38833
34.12154
33.43609
32.74186
32.68201
33.34944
34.09561
34.4913
33.66537
32.99337
32.31016
32.24617
32.91978
33.8054
34.20357
33.27651
32.58889
32.47236
33.32269
34.23508
33.83985
32.82493
32.89565
33.83388
34.23536
33.34748
32.26059
32.33858
33.4232
34.20555
33.8713
32.91837
32.95751
33.80747
34.1506
33.48973
32.33577
32.32705
33.33549
34.08146
33.75576
32.91107
32.80333
33.61142
33.96099
33.25738
32.26304
32.09397
33.04463
33.75003
34.03695
33.48266
32.67662
32.45482
33.20846
33.74226
33.98416
33.5248
32.84035
31.94769
32.54896
33.19038
33.6714
34.03163
33.84247
33.48787
32.86114
32.10569
32.50544
33.01472
33.40026
33.70612
33.77958
33.77256
33.76227
33.59484
33.25308
32.75831
32.11073
32.26366
32.62911
32.96893
33.12007
33.12304
33.07766
32.86582
32.50323
31.96726
31.84615
32.16588
32.32313
32.33715
32.26141
32.07702
33.5878
34.48327
35.45987
36.38384
35.97217
34.97456
33.97369
33.56804
34.46124
35.40265
36.22965
35.87771
34.9377
33.95739
33.52696
34.41097
35.30059
36.03592
35.73184
34.86715
33.91556
33.46665
34.33757
35.18211
35.84295
35.57634
34.77527
33.85215
33.39078
34.24777
35.06216
35.70364
35.45027
34.6716
33.77178
33.30259
34.14635
34.93997
35.56147
35.31163
34.55993
33.67891
33.20555
34.03612
34.815
35.42652
35.1819
34.44164
33.57731
33.10028
33.91674
34.68438
35.29576
35.04297
34.31475
33.46942
32.98978
33.77876
34.54315
35.15772
34.91475
34.17213
33.35979
33.56583
34.37886
35.00838
35.20503
34.71479
34.00556
33.2177
33.43863
34.2414
34.8987
35.1123
34.58111
33.8686
33.07758
33.30472
34.11707
34.80084
35.02449
34.46104
33.73981
32.94307
33.17737
33.98778
34.67596
34.90883
34.33475
33.6091
32.81956
33.05503
33.84016
34.5519
34.94554
34.76436
34.19392
33.46414
32.69654
32.89552
33.66927
34.35972
34.86861
34.66234
34.03011
33.24387
32.76143
33.49414
34.18177
34.71597
34.48179
33.85623
33.11024
33.11637
33.85389
34.438
34.65994
34.15806
33.51491
32.76975
32.76207
33.47717
34.11116
34.59306
34.38903
33.80799
33.08899
32.38266
32.35488
33.05661
33.79486
34.33366
34.57566
34.12688
33.44922
32.73516
32.68221
33.38111
33.97449
34.51418
34.2808
33.69582
33.00242
32.30424
32.24628
32.93681
33.61713
34.26111
33.97961
33.29415
32.61315
32.51005
33.20995
33.91898
34.33513
33.52258
32.85222
32.6973
33.49279
34.29897
33.94411
32.98995
32.31394
33.05472
33.9777
33.59089
32.42656
32.46487
33.5562
33.96365
33.05712
33.01922
33.90529
33.51855
32.42981
32.40339
33.44309
34.09346
33.77225
32.97
32.85263
33.65974
33.98908
33.27082
32.34427
32.13568
33.14718
33.75435
34.00686
33.50262
32.67794
32.37813
33.19983
33.74713
34.00003
33.51656
32.82821
32.52418
33.17455
33.65157
33.93555
34.02714
33.80367
33.47206
32.84286
32.06609
32.45343
32.97387
33.34871
33.64659
33.77448
33.74901
33.73105
33.5532
33.1924
32.69188
32.06817
32.19348
32.55854
32.89797
33.07815
33.09784
32.98353
32.77677
32.39907
31.90511
32.04946
32.22271
32.24135
32.1563
31.89313
33.54579
34.42781
35.39905
36.36511
35.93854
34.90163
33.92878
33.52221
34.40217
35.34796
36.21238
35.85014
34.86799
33.90845
33.47449
34.34836
35.25393
36.01571
35.70751
34.80042
33.86097
33.40413
34.27667
35.14273
35.81865
35.55092
34.71393
33.7953
33.30889
34.1941
35.0294
35.69641
35.43196
34.61809
33.71742
33.21187
34.09634
34.91014
35.5556
35.29121
34.51204
33.62136
33.12075
33.98095
34.78423
35.41417
35.14529
34.39487
33.51422
33.82634
34.64497
35.24476
34.97295
34.25908
33.3974
33.64695
34.49755
35.10083
35.3074
34.80783
34.10926
33.25835
33.5053
34.35928
34.99217
35.21481
34.67306
33.9668
33.1275
33.37089
34.20785
34.88878
35.11911
34.55197
33.82048
32.99635
33.24506
34.07249
34.77733
35.01599
34.43203
33.68592
32.86229
33.12049
33.94011
34.65223
34.8751
34.30632
33.54761
32.74402
32.98044
33.78739
34.4678
34.95331
34.74688
34.16224
33.33955
32.81143
33.64643
34.33485
34.88151
34.65592
34.02843
33.19072
32.65322
33.46152
34.16785
34.74814
34.494
33.83113
33.05435
33.08809
33.8468
34.41866
34.64234
34.14476
33.48068
32.70672
32.70567
33.46609
34.09501
34.59316
34.36735
33.80971
33.06629
33.03247
33.75783
34.33376
34.58598
34.04577
33.42257
32.67985
32.63987
33.3495
33.97465
34.46369
34.24853
33.68856
32.9844
32.91991
33.61707
34.16973
34.40611
33.89747
33.28736
32.57203
32.4725
33.21016
33.79414
34.34592
34.0895
33.52892
32.84769
32.69732
33.3325
33.98729
34.34622
33.62332
32.99934
32.30237
32.85295
33.66508
34.05315
33.19793
32.48958
32.26754
33.17792
34.01758
33.63523
32.65745
32.59866
33.64096
34.01098
33.11783
33.07343
33.93119
33.59534
32.51201
32.44476
33.46387
34.06484
33.76421
33.03022
32.82497
33.6286
33.99397
33.25959
32.32451
32.05058
33.04635
33.73142
34.00537
33.47755
32.69131
32.30686
33.16312
33.72323
34.04937
33.93787
33.49762
32.76612
32.42839
33.1263
33.5894
33.87639
34.05104
33.97454
33.73418
33.35025
32.77548
31.94891
32.28707
32.8033
33.25461
33.4789
33.69913
33.70342
33.64374
33.37704
33.07386
32.58817
31.91477
31.96459
32.40944
32.66434
32.89579
32.90019
32.84783
32.56162
32.23548
31.85375
32.01574
32.03575
31.98153
33.66531
34.64977
35.61126
36.33407
35.97808
35.10055
34.14206
33.63698
34.61456
35.54878
36.18978
35.88273
35.05668
34.11595
33.58591
34.53443
35.43398
35.99889
35.73592
34.96595
34.05761
33.52184
34.39854
35.30011
35.81048
35.58071
34.84283
33.97915
33.44479
34.24858
35.1757
35.68896
35.46899
34.71539
33.83594
33.34625
34.11387
35.05543
35.55215
35.32798
34.59243
33.71501
33.26556
34.0009
34.92746
35.43213
35.20475
34.4668
33.58906
33.89926
34.7886
35.3017
35.0701
34.35259
33.48258
33.7826
34.61629
35.18733
34.9243
34.22278
33.36172
33.65493
34.44763
35.05691
35.21921
34.80762
34.07957
33.23678
33.53013
34.30396
34.91637
35.09765
34.68424
33.93266
33.11002
33.41042
34.15925
34.82114
35.01947
34.5544
33.74359
33.00294
33.22618
34.02903
34.70482
34.92431
34.43991
33.6228
32.90403
33.08736
33.91009
34.57024
34.81669
34.32356
33.48836
32.92902
33.75907
34.46788
34.88041
34.71228
34.12227
33.34237
32.78231
33.53821
34.28099
34.74097
34.53929
33.91552
33.19453
33.24006
33.95038
34.51577
34.71153
34.27025
33.6109
32.83772
32.86769
33.61816
34.21914
34.63169
34.45201
33.98769
33.26449
32.47177
33.24478
33.93378
34.38834
34.58023
34.1691
33.57998
32.84991
32.81617
33.52624
34.09555
34.51422
34.32327
33.87305
33.19791
32.44926
32.39314
33.13581
33.8054
34.26122
34.44526
34.03347
33.46242
32.75222
32.65891
33.32289
33.91902
34.3459
34.15844
33.71013
33.04616
32.89595
33.49273
33.98722
34.24042
33.78022
33.19593
32.49509
32.33864
33.05462
33.66493
34.17562
33.88595
33.29562
32.6899
32.4648
33.17796
33.82716
34.21235
33.54465
32.86148
32.59971
33.42512
34.16623
33.7912
32.98479
32.91073
33.74169
34.11956
33.36515
32.27946
33.29962
34.02456
33.66505
32.74394
32.61589
33.5291
33.91638
33.2392
32.97802
33.72041
33.99986
33.4122
32.47255
32.18525
33.20609
33.76254
34.00878
33.46883
32.84498
32.33169
33.19775
33.74642
33.95086
33.48072
32.86469
32.42334
33.0483
33.55511
33.84325
34.03251
33.9333
33.7525
33.36519
32.84706
31.98098
32.22727
32.8759
33.31167
33.55032
33.62267
33.62706
33.62851
33.44343
33.03329
32.61249
31.9796
32.4497
32.71354
32.83262
32.89141
32.80882
32.61595
32.29203
31.95369
32.19142
32.12083
32.13132
33.86514
34.94813
36.16385
35.61878
34.29505
33.48096
33.84005
34.91077
36.04092
35.55296
34.27295
33.45441
33.791
34.83618
35.86214
35.43438
34.21896
33.40693
33.7231
34.74386
35.66387
35.29454
34.1462
33.34209
33.64316
34.64888
35.51947
35.72217
35.18579
34.06392
33.26628
33.55531
34.54931
35.35398
35.57638
35.05618
33.97597
33.18873
33.44655
34.44576
35.21784
35.44539
34.92693
33.89297
33.12154
33.35393
34.33268
35.08655
35.319
34.79339
33.80528
33.23896
34.20755
34.95983
35.19941
34.65838
33.69586
33.1189
34.04403
34.79981
35.08675
34.46473
33.57409
33.00678
33.79995
34.67224
34.97376
34.26845
33.44048
32.88717
33.66172
34.56862
34.87085
34.13653
33.26063
32.77393
33.52166
34.44442
34.93546
34.72556
34.01298
33.12141
33.4035
34.32014
34.83209
34.60426
33.88131
32.9776
33.2816
34.13364
34.74298
34.46706
33.70597
32.84045
33.08097
33.91029
34.57714
34.78667
34.29013
33.48277
32.71415
32.77478
33.52625
34.27583
34.55474
34.01079
33.18003
32.39766
33.2005
34.0288
34.52062
34.30588
33.62053
32.78604
32.81205
33.63209
34.26509
34.48361
33.97658
33.24264
32.43252
32.4273
33.21711
33.92791
34.43184
34.22082
33.59159
32.80274
32.75494
33.5311
34.12795
34.35077
33.85865
33.16287
32.38148
32.31118
33.08002
33.75639
34.23664
33.98835
33.43754
32.6792
32.54439
33.21712
33.85001
34.2969
34.10535
33.63204
32.93306
32.19272
32.78385
33.42347
33.97607
34.19041
33.72221
33.08831
32.38403
32.20597
32.95733
33.55587
34.01734
34.24209
33.76784
33.22259
32.56692
32.32693
33.01908
33.64085
34.16616
33.89236
33.33693
32.66457
32.40333
33.07338
33.74165
34.13425
33.47247
32.79681
32.44473
33.2996
34.03329
33.67253
32.82542
32.09576
32.61588
33.5914
34.00159
33.22371
33.13207
33.84901
33.47063
32.43531
32.25703
33.25144
33.99198
33.63672
32.85073
32.6595
33.43916
33.99745
33.75813
33.13394
32.03954
32.75613
33.44143
33.9715
33.76009
33.13559
32.2702
31.83557
32.78187
33.4029
33.80823
33.96586
33.61178
33.13293
32.30428
31.86109
32.62087
33.13636
33.51919
33.76
33.81607
33.828
33.80928
33.62549
33.36626
32.86869
32.30894
32.37845
32.73666
33.06366
33.18198
33.20513
33.153
32.9424
32.58764
32.04519
31.96291
32.33558
32.58322
32.78339
32.81859
32.73195
32.48751
32.17185
31.93259
32.19137
32.36382
32.34091
32.27191
32.08062
31.78449
32.00792
31.93714
31.93645
34.24672
35.56373
36.34769
35.98268
34.91685
33.73637
34.22145
35.50045
36.19582
35.88122
34.87966
33.70391
34.16308
35.38123
35.99548
35.73122
34.80486
33.63874
34.08117
35.2424
35.79279
35.5532
34.70343
33.55748
33.98365
35.10439
35.6603
35.41672
34.58562
33.46691
33.87677
34.95841
35.50775
35.22389
34.45996
33.37038
33.75676
34.70252
35.3848
35.08233
34.29802
33.26729
33.61921
34.52955
35.26005
34.95859
34.12046
33.15467
33.47583
34.38013
35.16074
34.83654
33.93949
33.03449
33.33798
34.23764
35.04312
34.71208
33.7073
32.92641
33.15583
34.12575
34.91925
34.60593
33.58681
32.81355
33.02412
34.01387
34.77544
34.98391
34.48193
33.47613
32.90083
33.8895
34.60702
34.86582
34.34774
33.36407
32.77741
33.70345
34.49382
34.77569
34.10996
33.23136
32.64428
33.43657
34.38822
34.68498
33.9452
33.07012
32.47481
33.29474
34.21591
34.75084
34.53046
33.78728
32.84927
33.01465
33.84439
34.51501
34.2189
33.38477
32.58825
32.63193
33.51957
34.20892
34.48971
33.94234
33.06912
32.23292
33.08934
33.91523
34.43475
34.21932
33.51321
32.63177
32.6337
33.50762
34.17524
34.39075
33.8565
33.08817
32.24178
32.20564
33.04584
33.80931
34.33393
34.10117
33.45658
32.5975
32.53485
33.38681
33.99631
34.26391
33.73661
32.97762
32.1435
32.05769
32.87034
33.63121
34.14695
33.84991
33.26576