/*--------------------------------*- C++ -*----------------------------------*\
| =========                 |                                                 |
| \\      /  F ield         | OpenFOAM: The Open Source CFD Toolbox           |
|  \\    /   O peration     | Version:  5.x                                   |
|   \\  /    A nd           | Web:      www.OpenFOAM.org                      |
|    \\/     M anipulation  |                                                 |
\*---------------------------------------------------------------------------*/
FoamFile
{
    version     2.0;
    format      ascii;
    class       volScalarField;
    location    "31/gland";
    object      T;
}
// * * * * * * * * * * * * * * * * * * * * * * * * * * * * * * * * * * * * * //

dimensions      [0 0 0 1 0 0 0];

internalField   nonuniform List<scalar> 
202541
(
36.66725
36.72782
36.73009
36.72332
36.1471
36.18126
36.18526
36.18013
35.85114
35.85745
35.83879
35.6365
35.63308
35.62752
35.4618
35.48221
36.76462
36.83887
36.87257
36.88482
36.88718
36.88005
36.85949
36.80552
36.6699
36.18307
36.33909
36.43858
36.4771
36.48688
36.45679
36.40297
36.28206
35.85254
35.97819
36.12135
36.16439
36.17694
36.1418
36.07125
35.95955
35.6107
35.74306
35.88174
35.92305
35.93634
35.90688
35.82964
35.71616
35.45833
35.57208
35.68423
35.73173
35.74057
35.71837
35.63041
35.53554
35.30732
35.42687
35.51597
35.57464
35.58241
35.55435
35.45058
35.36514
35.28384
35.3453
35.43299
35.44206
35.40544
35.32227
35.19745
35.1562
35.2301
35.30359
35.31285
35.25587
35.20255
35.10951
35.05595
35.12768
35.16814
35.17232
35.14883
35.10308
35.01704
35.0815
35.08243
35.06568
35.00969
36.82054
36.87958
36.90708
36.9198
36.92492
36.92614
36.92269
36.91493
36.89697
36.8648
36.71118
36.32008
36.4709
36.55998
36.61381
36.63577
36.64109
36.62603
36.59272
36.52547
36.42617
36.19467
35.99153
36.16724
36.27788
36.35287
36.38288
36.38988
36.37053
36.3217
36.23547
36.10988
35.87712
35.75304
35.92959
36.05455
36.1365
36.16983
36.17677
36.15767
36.10072
36.00599
35.86313
35.66128
35.56365
35.73684
35.86842
35.95248
35.99174
35.99807
35.97823
35.91362
35.81279
35.63364
35.47761
35.41257
35.57833
35.70934
35.79434
35.84175
35.84958
35.82407
35.75536
35.64202
35.47427
35.32397
35.25506
35.4428
35.56916
35.65534
35.70821
35.71807
35.68655
35.61935
35.50391
35.34082
35.14599
35.28688
35.43833
35.53473
35.58391
35.59364
35.56233
35.49637
35.38123
35.22445
35.04243
35.17314
35.32687
35.42456
35.4717
35.47919
35.4522
35.38222
35.2656
35.12006
35.08349
35.18063
35.29032
35.34259
35.35055
35.31807
35.25094
35.12608
35.00306
34.98458
35.05994
35.13155
35.13858
35.08681
35.02275
34.89282
34.85895
34.93462
34.93707
34.88932
34.83
36.69487
36.8467
36.90291
36.92334
36.93538
36.94236
36.94548
36.94613
36.94423
36.93948
36.93026
36.9157
36.88145
36.81247
36.15372
36.35875
36.54809
36.63402
36.68477
36.71624
36.73056
36.73352
36.72487
36.70304
36.66288
36.60079
36.47122
36.28848
36.02498
36.26127
36.38536
36.46079
36.50891
36.53101
36.53538
36.52247
36.48833
36.42817
36.33521
36.16208
35.90498
35.78949
36.0314
36.17371
36.2665
36.32531
36.35282
36.35793
36.34248
36.29978
36.22616
36.11233
35.92801
35.65529
35.61403
35.84323
35.99282
36.09717
36.16361
36.19644
36.2023
36.18411
36.13445
36.0508
35.92348
35.74236
35.4873
35.46532
35.6804
35.83892
35.94944
36.02123
36.05921
36.06625
36.04449
35.98974
35.8988
35.76543
35.58188
35.3659
35.32648
35.53384
35.70354
35.81868
35.89448
35.93581
35.94388
35.91928
35.86164
35.76595
35.62672
35.41081
35.22996
35.17826
35.41032
35.57895
35.69988
35.78004
35.82219
35.83045
35.80523
35.74553
35.64557
35.50282
35.29103
35.08585
35.29275
35.46615
35.59089
35.67476
35.71779
35.7258
35.70066
35.63831
35.53465
35.38497
35.18613
34.99266
35.16171
35.33382
35.45856
35.54673
35.59163
35.59995
35.57348
35.50836
35.40208
35.26004
35.09192
34.94404
35.10703
35.24515
35.34055
35.38795
35.39746
35.36738
35.29942
35.188
35.04121
34.92684
35.02173
35.12211
35.17732
35.19199
35.15475
35.08322
34.97306
34.8411
34.80288
34.9231
34.94312
34.94631
34.92711
34.86118
36.85709
36.90686
36.93238
36.94481
36.95209
36.95653
36.95867
36.95909
36.95783
36.95464
36.94889
36.93968
36.92189
36.88933
36.7659
36.34635
36.56575
36.67181
36.72863
36.76261
36.78355
36.79376
36.79573
36.78979
36.77459
36.74766
36.70482
36.62682
36.48752
36.21745
36.0415
36.28969
36.44032
36.52931
36.58446
36.61878
36.63563
36.63884
36.62912
36.60401
36.56015
36.4911
36.37446
36.18336
35.89088
35.79883
36.06846
36.24054
36.35055
36.42192
36.46664
36.4889
36.49308
36.48034
36.44732
36.39031
36.302
36.16386
35.95076
35.65473
35.61892
35.88792
36.06846
36.1919
36.2753
36.32822
36.3552
36.36029
36.34478
36.30525
36.23807
36.13617
35.98647
35.76848
35.49557
35.48368
35.73361
35.91772
36.05159
36.14364
36.20289
36.23395
36.23991
36.22181
36.17711
36.10223
35.99068
35.832
35.62036
35.37336
35.35192
35.59051
35.78372
35.92608
36.02473
36.0889
36.12301
36.12968
36.10956
36.06099
35.98023
35.8613
35.69287
35.48129
35.24131
35.19094
35.46126
35.66499
35.81205
35.9159
35.98415
36.02029
36.02736
36.00602
35.95446
35.86902
35.74488
35.57207
35.32324
35.09043
35.35071
35.55575
35.70732
35.81505
35.8867
35.92449
35.93181
35.90961
35.85545
35.76633
35.63798
35.463
35.21525
35.00092
35.2035
35.42464
35.58077
35.69156
35.76676
35.80639
35.81407
35.79077
35.73381
35.64131
35.50984
35.32973
35.11111
35.0039
35.21046
35.37606
35.49208
35.57233
35.61455
35.62298
35.59773
35.53698
35.43973
35.30209
35.10489
34.89791
34.98821
35.16097
35.28457
35.37141
35.41751
35.4265
35.39959
35.33322
35.23222
35.06555
34.87833
34.80603
34.93524
35.06813
35.15834
35.20048
35.20597
35.18678
35.11818
35.00252
34.85164
34.83932
34.91864
34.94544
34.95038
34.93966
34.88368
34.78987
36.83365
36.90759
36.93445
36.94947
36.95801
36.96319
36.96635
36.96794
36.96825
36.96732
36.96499
36.96091
36.95434
36.94303
36.92332
36.88341
36.72675
36.34608
36.56616
36.68253
36.75066
36.79094
36.81585
36.83116
36.83889
36.84038
36.83589
36.82458
36.80486
36.77347
36.72108
36.63294
36.47954
36.21029
36.02452
36.29657
36.461
36.56557
36.63134
36.67327
36.69932
36.71253
36.71507
36.7074
36.68809
36.65471
36.6024
36.51932
36.38837
36.18029
35.89152
35.79789
36.07989
36.27015
36.39806
36.48301
36.53897
36.57411
36.5921
36.59555
36.58511
36.55893
36.51409
36.44511
36.34062
36.18462
35.95326
35.66616
35.62527
35.90046
36.10405
36.24757
36.34707
36.41435
36.45707
36.47924
36.48351
36.4706
36.43858
36.38431
36.3022
36.18231
36.01113
35.77307
35.4858
35.46548
35.74376
35.95671
36.11221
36.22324
36.29953
36.34849
36.3742
36.37921
36.36414
36.32724
36.26535
36.17287
36.04082
35.85883
35.61353
35.32424
35.29381
35.59187
35.82317
35.99019
36.11031
36.1937
36.24771
36.27632
36.28193
36.26509
36.22424
36.15624
36.05568
35.91351
35.71828
35.43166
35.17088
35.46367
35.70482
35.87998
36.00658
36.09552
36.15363
36.18452
36.19058
36.17239
36.12836
36.05549
35.94886
35.79984
35.59427
35.3105
35.09257
35.35676
35.5982
35.77824
35.91016
36.00353
36.06502
36.09776
36.10419
36.08492
36.03824
35.96145
35.84989
35.69574
35.48669
35.20693
35.20714
35.46352
35.65249
35.79128
35.88945
35.95462
35.98936
35.99619
35.97574
35.92618
35.84518
35.72794
35.56623
35.34799
35.07257
35.00159
35.24058
35.44753
35.59796
35.70335
35.77386
35.81144
35.81884
35.79672
35.74303
35.65593
35.52972
35.35246
35.11522
34.86223
35.02554
35.24535
35.39865
35.51215
35.58884
35.62891
35.63648
35.61351
35.55532
35.46148
35.3275
35.14475
34.90721
34.82079
35.01401
35.18116
35.30795
35.39035
35.42944
35.43597
35.41531
35.35442
35.25057
35.11193
34.93268
34.7678
34.94094
35.07794
35.16524
35.20223
35.20787
35.19034
35.1218
35.00172
34.87611
34.81568
34.90777
34.92755
34.92759
34.9212
34.87472
34.76985
36.78251
36.90708
36.93563
36.95123
36.96106
36.96723
36.97115
36.97357
36.9748
36.97504
36.97432
36.97253
36.96942
36.96451
36.95672
36.94438
36.92411
36.87709
36.26939
36.56505
36.68688
36.75926
36.80577
36.83554
36.85465
36.8665
36.87259
36.87377
36.87022
36.8614
36.8462
36.82238
36.78514
36.72726
36.63548
36.4614
35.95126
36.28516
36.46591
36.58066
36.65672
36.70691
36.73976
36.7603
36.77091
36.77296
36.76678
36.75145
36.72519
36.68456
36.6227
36.52942
36.38694
36.151
35.72318
36.0562
36.27392
36.41859
36.51724
36.58428
36.62907
36.65733
36.67202
36.67487
36.66629
36.64513
36.60914
36.55421
36.47276
36.35346
36.17705
35.90105
35.52901
35.86256
36.1054
36.27181
36.3881
36.46903
36.524
36.55898
36.57731
36.58088
36.57015
36.54386
36.49948
36.43253
36.33534
36.19637
35.99648
35.68385
35.36826
35.69242
35.95493
36.1385
36.26914
36.36157
36.42509
36.46584
36.48733
36.49154
36.47893
36.4482
36.3967
36.31973
36.20961
36.05489
35.83669
35.5234
35.25728
35.5583
35.82091
36.01763
36.1599
36.26164
36.33221
36.37781
36.40199
36.40675
36.39253
36.35805
36.30061
36.21547
36.09491
35.92752
35.6983
35.39387
35.14292
35.4403
35.70392
35.90858
36.05937
36.1684
36.24473
36.29439
36.32082
36.32604
36.31047
36.27285
36.2105
36.11882
35.99032
35.81422
35.57938
35.28232
35.3205
35.59469
35.80743
35.96535
36.08055
36.1617
36.21479
36.24313
36.24872
36.23204
36.19175
36.12528
36.02808
35.89292
35.70942
35.46244
35.15336
35.18675
35.45848
35.68066
35.84807
35.97087
36.05754
36.11449
36.14495
36.15097
36.13304
36.08977
36.01864
35.91493
35.77121
35.57788
35.32401
35.04246
34.95491
35.23434
35.47306
35.65665
35.79115
35.88593
35.94853
35.98199
35.9886
35.96895
35.92136
35.84342
35.73004
35.57215
35.36205
35.08613
35.02066
35.27273
35.46494
35.6078
35.71047
35.77877
35.81477
35.82171
35.8009
35.74914
35.66437
35.54278
35.37538
35.15875
34.87625
34.81253
35.03693
35.25164
35.40995
35.52157
35.59567
35.63323
35.64014
35.6191
35.56358
35.47104
35.33929
35.15379
34.9295
34.79166
35.00085
35.189
35.30885
35.38911
35.42836
35.43508
35.41419
35.35319
35.25245
35.10731
34.91232
34.75466
34.9383
35.0669
35.15374
35.19167
35.19604
35.17922
35.1106
34.99322
34.86863
34.79871
34.88391
34.91098
34.91539
34.90306
34.83616
34.74926
36.71951
36.89057
36.93376
36.95163
36.96231
36.96937
36.97407
36.97714
36.97906
36.98006
36.98026
36.97967
36.97824
36.97578
36.97198
36.96622
36.95756
36.94408
36.91822
36.83837
36.19978
36.5064
36.67704
36.76033
36.81176
36.84604
36.86898
36.88413
36.89361
36.89855
36.89951
36.89663
36.88953
36.87742
36.85875
36.83068
36.78883
36.72455
36.61006
36.36163
35.89077
36.2104
36.44583
36.58039
36.66671
36.72505
36.76463
36.79102
36.80766
36.81634
36.81804
36.81296
36.8005
36.77932
36.74691
36.69882
36.62805
36.52148
36.34626
36.04692
35.66821
35.98011
36.24351
36.41587
36.53037
36.60902
36.66318
36.69973
36.72291
36.73506
36.73744
36.73033
36.71293
36.6835
36.63885
36.57353
36.47884
36.33924
36.12416
35.82066
35.79018
36.06952
36.26716
36.40365
36.4992
36.56594
36.61147
36.64053
36.65583
36.65884
36.64987
36.628
36.59121
36.53586
36.45591
36.34184
36.17797
35.9399
35.61176
35.62902
35.91968
36.13319
36.28653
36.39604
36.47353
36.52687
36.56112
36.57923
36.58281
36.57218
36.54635
36.5031
36.43852
36.34625
36.21663
36.03551
35.78561
35.45153
35.45757
35.78776
36.01255
36.17869
36.29954
36.38606
36.44609
36.48486
36.50544
36.50951
36.49742
36.46812
36.4193
36.34689
36.24442
36.1025
35.90895
35.64605
35.30734
35.34051
35.66741
35.90263
36.07904
36.20909
36.30313
36.36887
36.41154
36.43427
36.43878
36.42541
36.39311
36.33951
36.26049
36.14963
35.99787
35.79387
35.51902
35.18991
35.23305
35.55423
35.79934
35.98528
36.12338
36.22396
36.29465
36.34073
36.36533
36.37022
36.35575
36.32082
36.26306
36.17831
36.06015
35.89964
35.6852
35.40148
35.09215
35.10434
35.41848
35.67107
35.86798
36.01576
36.12409
36.20052
36.25052
36.27729
36.2826
36.26687
36.22892
36.16636
36.0749
35.94799
35.77705
35.55189
35.24734
34.89717
35.16948
35.46226
35.67658
35.83896
35.95882
36.04372
36.09952
36.1294
36.13533
36.1178
36.07544
36.00579
35.90441
35.76434
35.57761
35.33212
35.04544
34.96265
35.25787
35.4858
35.65963
35.79001
35.88307
35.94448
35.97714
35.98356
35.96455
35.91802
35.84148
35.7308
35.57923
35.3814
35.09416
34.81714
34.74975
35.02729
35.27133
35.4622
35.60744
35.7097
35.77698
35.81226
35.81908
35.79879
35.74802
35.66399
35.54179
35.3735
35.15849
34.89827
34.77864
35.01996
35.23854
35.40263
35.51482
35.5886
35.62704
35.63425
35.61255
35.55659
35.46436
35.32874
35.1386
34.91761
34.77143
34.98289
35.16646
35.29122
35.37152
35.41419
35.42146
35.39848
35.33579
35.23379
35.087
34.89331
34.72736
34.89912
35.03144
35.11078
35.1678
35.17546
35.14883
35.07609
34.95875
34.81198
34.75233
34.82581
34.8686
34.87217
34.84663
34.79648
36.69764
36.8737
36.92661
36.94946
36.96209
36.97014
36.97559
36.97931
36.9818
36.98337
36.9842
36.98436
36.98388
36.9827
36.9807
36.97765
36.97314
36.96654
36.95659
36.93995
36.90741
36.79838
36.18401
36.44666
36.64477
36.74936
36.8103
36.84969
36.87648
36.89483
36.90715
36.91494
36.91903
36.91983
36.91744
36.9116
36.9017
36.88662
36.86444
36.83205
36.78356
36.70482
36.56452
36.28779
35.86763
36.09713
36.39508
36.56053
36.66324
36.7311
36.77767
36.80976
36.83144
36.8452
36.85243
36.85385
36.84963
36.8393
36.82185
36.79538
36.7567
36.70063
36.61774
36.4883
36.27553
35.96411
35.64082
35.86987
36.1819
36.38848
36.52468
36.61701
36.68114
36.72575
36.75609
36.77542
36.7856
36.78762
36.78166
36.76713
36.74265
36.70573
36.6522
36.57538
36.46373
36.29625
36.04083
35.7205
35.67799
36.00285
36.23546
36.39639
36.50881
36.58814
36.64389
36.68209
36.70653
36.71945
36.72201
36.71444
36.69604
36.66515
36.61882
36.55224
36.45787
36.32361
36.13018
35.84902
35.50936
35.52893
35.85045
36.09957
36.27848
36.40705
36.4993
36.56483
36.61004
36.63911
36.65453
36.65759
36.64856
36.62664
36.58997
36.53531
36.45743
36.34848
36.19686
35.98564
35.69408
35.37565
35.39729
35.71174
35.9765
36.16991
36.31162
36.41479
36.4888
36.54021
36.57342
36.59108
36.59459
36.58424
36.55916
36.51737
36.45541
36.36785
36.2468
36.08125
35.85477
35.55432
35.25228
35.24875
35.58562
35.86353
36.06906
36.22181
36.3343
36.41566
36.47253
36.50942
36.52909
36.53301
36.52147
36.49358
36.44725
36.37891
36.28302
36.15174
35.97451
35.73537
35.39553
35.1362
35.47126
35.75839
35.97397
36.13644
36.25711
36.34498
36.4067
36.44688
36.46835
36.47263
36.46003
36.42963
36.37926
36.30526
36.20201
36.06177
35.87435
35.62546
35.28673
35.03015
35.34107
35.62909
35.85544
36.02913
36.15938
36.2549
36.32232
36.36637
36.38996
36.39467
36.38084
36.34747
36.29235
36.21169
36.09984
35.94914
35.75013
35.49246
35.18191
35.11287
35.41487
35.66211
35.85291
35.99723
36.10409
36.18003
36.22988
36.25662
36.26196
36.2463
36.20851
36.14628
36.05575
35.93115
35.76504
35.5468
35.27135
34.96672
34.89699
35.19738
35.46859
35.67463
35.83152
35.94926
36.03337
36.08877
36.11842
36.12433
36.10702
36.06506
35.996
35.89596
35.75945
35.58004
35.34138
35.04402
34.96935
35.25892
35.47857
35.65076
35.78157
35.87466
35.93587
35.9685
35.97497
35.95602
35.9097
35.83336
35.7224
35.57129
35.37668
35.12667
34.81982
34.75927
35.01024
35.25562
35.4473
35.59318
35.69608
35.76375
35.79992
35.80702
35.78612
35.73475
35.65038
35.52738
35.3586
35.1433
34.89677
34.75299
34.99735
35.21658
35.37518
35.48939
35.56428
35.60514
35.61304
35.58956
35.53202
35.43833
35.30474
35.11727
34.89431
34.73521
34.94575
35.11604
35.24353
35.32643
35.37456
35.38394
35.35629
35.2911
35.18786
35.04812
34.8593
34.817
34.93732
35.03983
35.08568
35.1005
35.07054
34.98081
34.88852
34.75327
34.72507
34.79226
34.79766
34.77842
36.69843
36.86115
36.91361
36.94416
36.95995
36.96961
36.976
36.9804
36.98344
36.98551
36.98682
36.98751
36.98765
36.98725
36.98626
36.9846
36.98208
36.97842
36.97314
36.96534
36.95313
36.93203
36.88801
36.80732
36.19371
36.41815
36.58757
36.72403
36.79972
36.84696
36.87845
36.90019
36.91528
36.92553
36.93205
36.93549
36.93618
36.93417
36.92927
36.92101
36.90854
36.89042
36.86431
36.826
36.76677
36.66769
36.49568
36.30822
35.88414
36.10537
36.31037
36.51902
36.64484
36.72605
36.78097
36.81915
36.84576
36.8639
36.87547
36.88158
36.8828
36.87923
36.87054
36.85591
36.83386
36.80197
36.75627
36.68981
36.58938
36.42938
36.19457
35.9897
35.65911
35.86755
36.08672
36.33633
36.49992
36.60979
36.68558
36.7388
36.77613
36.8017
36.81806
36.82672
36.82844
36.82338
36.81108
36.79043
36.75942
36.71482
36.65138
36.56042
36.42678
36.22532
35.95613
35.75762
35.48736
35.64493
35.90119
36.17674
36.36716
36.4999
36.59358
36.66021
36.70731
36.73974
36.76056
36.7716
36.77381
36.76736
36.75168
36.72543
36.68621
36.63012
36.55115
36.43981
36.281
36.05227
35.75548
35.57441
35.3606
35.49548
35.74734
36.03616
36.24596
36.39686
36.50561
36.584
36.63988
36.67857
36.7035
36.71675
36.7194
36.71165
36.69287
36.66149
36.61481
36.54852
36.45616
36.32812
36.15011
35.90375
35.60155
35.41973
35.36919
35.6075
35.90781
36.13424
36.30023
36.42177
36.5104
36.57412
36.61847
36.64714
36.66242
36.66548
36.65655
36.63492
36.59889
36.54551
36.47021
36.36634
36.2243
36.03023
35.76793
35.4686
35.29379
35.24842
35.47876
35.79065
36.03071
36.20921
36.34173
36.43934
36.51002
36.55947
36.59156
36.60869
36.61213
36.60211
36.57789
36.53763
36.47825
36.39501
36.28113
36.12727
35.9201
35.64329
35.31773
35.1675
35.11708
35.36158
35.68464
35.93398
36.12276
36.26483
36.37042
36.44735
36.50143
36.53663
36.55546
36.55924
36.54824
36.52164
36.47755
36.41276
36.32241
36.19973
36.03579
35.81856
35.53363
35.2059
35.02704
35.23593
35.55464
35.81384
36.01426
36.16742
36.28234
36.36668
36.42626
36.46518
36.48605
36.49025
36.47805
36.44861
36.39995
36.32874
36.23003
36.09711
35.92149
35.69331
35.39818
35.09923
35.00611
35.34252
35.61647
35.83581
36.00574
36.13446
36.2299
36.29782
36.34241
36.36637
36.3712
36.35721
36.32346
36.26785
36.18695
36.07581
35.92769
35.73384
35.48781
35.16548
35.10295
35.41436
35.6549
35.84078
35.98236
36.08841
36.1643
36.2143
36.24118
36.2466
36.23094
36.19308
36.13083
36.04067
35.91777
35.75554
35.54286
35.27746
34.94455
34.88332
35.187
35.45923
35.66146
35.81715
35.93482
36.01916
36.07478
36.10469
36.11072
36.09332
36.0512
35.98202
35.88186
35.74593
35.56868
35.33581
35.04114
34.95836
35.24081
35.45949
35.63138
35.7619
35.85539
35.9172
35.95059
35.95731
35.9379
35.89098
35.81421
35.70321
35.55255
35.35834
35.11292
34.81143
34.72679
34.98178
35.22763
35.41759
35.56124
35.66493
35.73382
35.77159
35.77919
35.75718
35.70449
35.6191
35.49693
35.33039
35.1161
34.86773
34.70576
34.94926
35.16057
35.32162
35.43729
35.51487
35.55853
35.56737
35.54184
35.48168
35.38633
35.24973
35.06655
34.8518
34.85702
35.03691
35.15938
35.24899
35.30109
35.31123
35.28212
35.21019
35.10051
34.94443
34.73174
34.7282
34.84093
34.9277
35.00562
35.0137
34.96096
34.89421
34.79817
36.75706
36.86579
36.90869
36.93462
36.95566
36.96764
36.97534
36.98057
36.98422
36.98677
36.98851
36.98963
36.99022
36.99034
36.98999
36.98916
36.98775
36.98563
36.98258
36.97823
36.97191
36.96239
36.94691
36.92058
36.89175
36.82023
36.66511
36.2241
36.43059
36.5711
36.67994
36.779
36.83728
36.87518
36.90103
36.91911
36.93177
36.94044
36.94599
36.94893
36.94952
36.94781
36.94365
36.93665
36.92614
36.911
36.88943
36.85827
36.81162
36.73713
36.6191
36.50972
36.32548
35.90348
36.12031
36.29503
36.45036
36.61021
36.70933
36.77519
36.82059
36.85251
36.87496
36.89036
36.90023
36.90547
36.90652
36.90347
36.89606
36.88362
36.86496
36.83818
36.80017
36.74569
36.66534
36.54105
36.36127
36.21563
36.00437
35.67191
35.88737
36.07188
36.25178
36.45469
36.58715
36.67752
36.74076
36.78559
36.81728
36.8391
36.85311
36.86055
36.86205
36.85772
36.84719
36.82954
36.80317
36.76544
36.71225
36.63684
36.52782
36.36519
36.14622
35.98692
35.76943
35.48887
35.70559
35.88599
36.08139
36.31411
36.47252
36.58359
36.66263
36.71923
36.75949
36.78732
36.80525
36.81478
36.8167
36.81115
36.79768
36.77513
36.74155
36.69377
36.6269
36.53333
36.40096
36.21008
35.96489
35.80201
35.58865
35.36433
35.55182
35.72849
35.93423
36.18695
36.36562
36.49399
36.58683
36.65401
36.7021
36.73551
36.75709
36.76858
36.7709
36.76421
36.74798
36.72088
36.68066
36.62373
36.54473
36.43563
36.2843
36.07263
35.81167
35.64045
35.45594
35.40162
35.59415
35.80266
36.07035
36.26567
36.40867
36.51355
36.59018
36.64542
36.68394
36.7089
36.72223
36.72492
36.71717
36.69837
36.66708
36.62077
36.5556
36.46589
36.34342
36.1763
35.94791
35.67816
35.50442
35.31297
35.2779
35.47004
35.68277
35.9631
36.17193
36.32729
36.44268
36.52778
36.58949
36.63273
36.66082
36.67583
36.67887
36.67014
36.64897
36.6138
36.56195
36.48934
36.39014
36.25617
36.07598
35.83408
35.55441
35.38239
35.18723
35.17633
35.35081
35.57315
35.86375
36.08334
36.24921
36.37389
36.4666
36.53422
36.5818
36.61278
36.62938
36.63274
36.62309
36.59973
36.56097
36.50403
36.42468
36.31702
36.17306
35.98209
35.72964
35.44106
35.24769
35.10162
35.05056
35.21038
35.44136
35.74053
35.97227
36.15032
36.28592
36.38763
36.46233
36.51514
36.54965
36.56818
36.57194
36.56117
36.53512
36.49204
36.42898
36.34161
36.22396
36.06832
35.86502
35.60109
35.30534
35.13974
35.00626
35.22735
35.53642
35.78857
35.98593
36.13811
36.25337
36.33881
36.39966
36.43962
36.46113
36.46551
36.45302
36.42283
36.37307
36.30067
36.2012
36.06854
35.8948
35.67148
35.38708
35.08026
34.93101
35.00844
35.31885
35.59985
35.81791
35.98614
36.11418
36.20985
36.27837
36.32354
36.3479
36.35287
36.33874
36.3046
36.24846
36.16715
36.05621
35.90933
35.71719
35.4711
35.14123
34.8644
35.07508
35.39491
35.63636
35.82135
35.9628
36.06923
36.14572
36.19628
36.22359
36.22917
36.21334
36.1751
36.11236
36.02173
35.89871
35.73698
35.52507
35.25703
34.90642
34.86004
35.1647
35.43265
35.63559
35.79201
35.91027
35.99543
36.0519
36.08253
36.0888
36.07103
36.02823
35.9583
35.85751
35.72101
35.5429
35.31062
35.02055
34.91299
35.19301
35.41881
35.59299
35.72498
35.82012
35.88341
35.91805
35.92515
35.90499
35.85682
35.77858
35.66611
35.5138
35.3158
35.03668
34.75734
34.90669
35.1527
35.35176
35.50325
35.61073
35.68235
35.72211
35.73025
35.70707
35.65208
35.56389
35.43575
35.26093
35.01804
34.74846
34.85093
35.06319
35.23571
35.35731
35.43935
35.48618
35.49532
35.46858
35.40419
35.30452
35.1567
34.95347
34.71512
34.73043
34.91804
35.05719
35.14571
35.20216
35.20944
35.18091
35.10127
34.98158
34.83504
34.73524
34.81086
34.86299
34.84902
34.84731
34.76975
36.8009
36.87347
36.90994
36.93146
36.94828
36.96405
36.97356
36.97987
36.98424
36.98731
36.98949
36.99098
36.99194
36.99245
36.99255
36.99225
36.99154
36.99033
36.98853
36.98594
36.98228
36.97705
36.96936
36.95733
36.93881
36.92215
36.8939
36.8494
36.69085
36.27264
36.44103
36.57793
36.66733
36.74388
36.81979
36.86642
36.89757
36.9192
36.93449
36.94528
36.95272
36.95749
36.96003
36.96054
36.95907
36.9555
36.94949
36.94051
36.92766
36.9095
36.88363
36.84576
36.78719
36.70022
36.62741
36.51704
36.33583
36.18087
35.92134
36.13455
36.30737
36.4342
36.55276
36.67948
36.75995
36.81449
36.85265
36.87976
36.89896
36.91219
36.92071
36.92524
36.92616
36.92354
36.91716
36.90646
36.89047
36.86765
36.83553
36.79003
36.72411
36.62429
36.48412
36.3761
36.22755
36.02348
35.67545
35.89685
36.08817
36.23472
36.38052
36.54698
36.65658
36.73225
36.78578
36.82405
36.85127
36.87009
36.88222
36.88867
36.88999
36.88625
36.87716
36.86193
36.83924
36.80694
36.76171
36.6982
36.60747
36.47348
36.29505
36.16671
35.999
35.77702
35.48767
35.71121
35.90758
36.06363
36.22755
36.42404
36.55777
36.65198
36.71946
36.76808
36.80283
36.82695
36.84253
36.85083
36.85252
36.84772
36.83603
36.8165
36.78747
36.74633
36.68906
36.60943
36.49748
36.3363
36.13055
35.99035
35.81547
35.58984
35.34492
35.56327
35.75176
35.91462
36.09162
36.31053
36.46403
36.57427
36.65425
36.71235
36.75411
36.78319
36.80202
36.81208
36.81413
36.80832
36.79418
36.7706
36.73565
36.68633
36.61815
36.52431
36.39443
36.21187
35.98654
35.83716
35.66062
35.44929
35.25301
35.41111
35.61524
35.78412
35.96936
36.20534
36.37519
36.49928
36.59041
36.65715
36.70537
36.73908
36.76096
36.77267
36.77506
36.7683
36.75186
36.72449
36.68405
36.62724
36.54921
36.44288
36.2978
36.09812
35.85915
35.70384
35.52066
35.33531
35.29208
35.49455
35.66604
35.85767
36.10736
36.2908
36.42688
36.52794
36.60255
36.65673
36.69476
36.71949
36.73275
36.73546
36.72781
36.70921
36.67831
36.63278
36.56909
36.48218
36.36486
36.20689
35.99326
35.74332
35.58434
35.39973
35.19957
35.18542
35.37355
35.55508
35.75425
36.0152
36.21009
36.35667
36.46667
36.54845
36.60816
36.65021
36.67763
36.69234
36.69536
36.68687
36.66625
36.63204
36.58177
36.51176
36.41679
36.28971
36.12066
35.8955
35.63575
35.46925
35.26369
35.09589
35.07301
35.23276
35.423
35.62733
35.89998
36.10799
36.26692
36.38753
36.47794
36.54434
36.59131
36.62203
36.63855
36.64194
36.63241
36.6093
36.57103
36.515
36.43737
36.33278
36.19414
36.01218
35.7742
35.50551
35.33536
35.15978
35.03922
35.21053
35.421
35.70853
35.93772
36.11598
36.25287
36.35643
36.43316
36.4878
36.5237
36.54306
36.54706
36.5359
36.50886
36.46424
36.39928
36.30997
36.19071
36.0342
35.83167
35.57362
35.29516
35.11823
34.94985
34.99192
35.20396
35.50726
35.76244
35.96064
36.11323
36.22927
36.31583
36.37781
36.4187
36.4408
36.44537
36.43265
36.40184
36.35113
36.27765
36.17723
36.04402
35.86978
35.64472
35.35891
35.065
34.90621
34.97915
35.28979
35.57397
35.79266
35.96141
36.09034
36.18707
36.25664
36.30267
36.32761
36.33278
36.31843
36.28371
36.22673
36.14442
36.03252
35.88492
35.69235
35.44464
35.11133
34.81901
35.04413
35.36406
35.60316
35.78961
35.93288
36.04086
36.11872
36.17038
36.19847
36.2043
36.18812
36.1491
36.08524
35.99324
35.86857
35.70501
35.49292
35.22694
34.87853
34.79358
35.11886
35.38006
35.5881
35.7486
35.86997
35.95747
36.01562
36.04737
36.05396
36.03563
35.99161
35.91983
35.8164
35.67642
35.49357
35.25609
34.96764
34.84972
35.11402
35.34523
35.52707
35.66588
35.7652
35.83103
35.86719
35.87467
35.85378
35.80373
35.72249
35.60443
35.44491
35.23824
34.97707
34.68117
34.82936
35.06024
35.25947
35.42051
35.53365
35.6083
35.64976
35.65808
35.63438
35.57703
35.48521
35.34849
35.16713
34.94001
34.69695
34.72445
34.94375
35.13097
35.25472
35.3382
35.38498
35.39273
35.36804
35.30238
35.20151
35.0489
34.8582
34.79606
34.91653
35.01199
35.06305
35.06746
35.04369
34.95801
34.86146
34.70074
34.74329
34.75726
36.75707
36.87347
36.91044
36.93187
36.94582
36.95801
36.97046
36.97825
36.98353
36.98723
36.98986
36.99173
36.99303
36.99386
36.9943
36.9944
36.99414
36.99352
36.99247
36.99092
36.9887
36.98557
36.98117
36.97479
36.96508
36.95102
36.93959
36.92237
36.89523
36.83727
36.22419
36.44103
36.57944
36.67053
36.73318
36.79058
36.85115
36.88955
36.91568
36.93406
36.94716
36.95648
36.96292
36.96707
36.96928
36.96974
36.96847
36.96537
36.96017
36.95241
36.94136
36.92585
36.90399
36.87249
36.82485
36.75745
36.70477
36.62956
36.51788
36.34332
35.90363
36.13464
36.31178
36.44117
36.53718
36.6303
36.7335
36.80042
36.84643
36.87899
36.9023
36.91889
36.93039
36.9378
36.94176
36.94258
36.94031
36.93476
36.92548
36.91164
36.89197
36.86444
36.82582
36.77058
36.68827
36.57606
36.49294
36.38159
36.23068
36.01512
35.67209
35.89697
36.09309
36.24459
36.36224
36.48164
36.62031
36.71267
36.77703
36.82295
36.856
36.87961
36.896
36.90659
36.91225
36.91341
36.91017
36.90225
36.889
36.86929
36.84135
36.80241
36.74814
36.67132
36.55894
36.41155
36.30743
36.17402
36.00167
35.7746
35.48906
35.71133
35.91286
36.07569
36.20729
36.34593
36.51318
36.62751
36.7084
36.76667
36.80886
36.83914
36.86021
36.87386
36.88115
36.88266
36.87848
36.86827
36.85122
36.82591
36.79015
36.74057
36.672
36.57608
36.4385
36.26406
36.14542
35.99909
35.81773
35.59001
35.36447
35.56335
35.76019
35.9282
36.06962
36.22262
36.41252
36.54552
36.64109
36.71064
36.76134
36.79788
36.82339
36.83994
36.84881
36.85065
36.84557
36.83318
36.81251
36.78192
36.73884
36.67945
36.59797
36.48543
36.32709
36.13195
36.00267
35.84823
35.66564
35.45295
35.41117
35.62312
35.79815
35.9468
36.11015
36.31799
36.4668
36.57535
36.65513
36.71368
36.75608
36.78578
36.8051
36.81545
36.8176
36.81167
36.79721
36.77313
36.73757
36.68769
36.61931
36.52626
36.3993
36.22389
36.01313
35.87626
35.71489
35.52452
35.32486
35.29219
35.50532
35.68228
35.83537
36.00652
36.22886
36.39113
36.51114
36.60022
36.66602
36.71389
36.74753
36.76945
36.78123
36.78367
36.77694
36.76052
36.73322
36.69301
36.63681
36.56019
36.45676
36.31727
36.12767
35.90467
35.76249
35.59786
35.40607
35.19693
35.18563
35.3949
35.57441
35.73189
35.90972
36.14407
36.31799
36.44824
36.5458
36.61833
36.67132
36.70867
36.73306
36.74618
36.74892
36.74142
36.72314
36.6928
36.64822
36.58614
36.50192
36.38911
36.23859
36.03698
35.80383
35.65678
35.48853
35.29459
35.09541
35.0734
35.2726
35.44695
35.6057
35.78976
36.03727
36.22467
36.36708
36.47485
36.55554
36.61482
36.65677
36.68423
36.69903
36.70212
36.69367
36.67309
36.63897
36.589
36.51973
36.42635
36.30232
36.13884
35.9236
35.67996
35.52929
35.36404
35.17249
35.05094
35.22677
35.397
35.59265
35.85935
36.06775
36.22904
36.35253
36.44587
36.51498
36.56419
36.59655
36.61404
36.6177
36.60773
36.58347
36.54337
36.48493
36.40449
36.29696
36.15558
35.97188
35.73589
35.47615
35.3157
35.1316
34.95572
35.01004
35.17758
35.38856
35.67483
35.90587
36.08591
36.2245
36.32987
36.40838
36.46459
36.5017
36.5218
36.52603
36.51459
36.48675
36.44086
36.37429
36.2832
36.16219
36.00395
35.79944
35.54051
35.2632
35.08755
34.90468
34.94752
35.16927
35.47516
35.73146
35.93061
36.08462
36.20233
36.29054
36.35397
36.39598
36.4188
36.42361
36.41062
36.37908
36.32723
36.25227
36.15021
36.01541
35.83997
35.61385
35.32664
35.02542
34.85098
34.94243
35.25425
35.53592
35.75503
35.92586
36.05719
36.15609
36.22742
36.27479
36.30057
36.30602
36.29133
36.25572
36.19735
36.11316
35.999
35.84904
35.65505
35.40746
35.07723
34.78142
34.99671
35.30521
35.54931
35.73991
35.8872
35.99863
36.07911
36.13258
36.16176
36.16792
36.15127
36.111
36.04513
35.95018
35.82179
35.65406
35.43779
35.15752
34.82923
34.72472
35.013
35.30431
35.51788
35.68398
35.81086
35.90226
35.96284
35.99598
36.00294
35.984
35.93829
35.86362
35.75546
35.60979
35.42158
35.17751
34.88216
34.70508
34.9939
35.25004
35.43911
35.58513
35.68929
35.75802
35.79572
35.80352
35.78204
35.72994
35.64525
35.52097
35.35404
35.14164
34.88695
34.67451
34.92971
35.14795
35.31301
35.43052
35.50905
35.55216
35.56067
35.53654
35.47653