/*--------------------------------*- C++ -*----------------------------------*\
| =========                 |                                                 |
| \\      /  F ield         | OpenFOAM: The Open Source CFD Toolbox           |
|  \\    /   O peration     | Version:  5.x                                   |
|   \\  /    A nd           | Web:      www.OpenFOAM.org                      |
|    \\/     M anipulation  |                                                 |
\*---------------------------------------------------------------------------*/
FoamFile
{
    version     2.0;
    format      ascii;
    class       volScalarField;
    location    "35/tissue";
    object      T;
}
// * * * * * * * * * * * * * * * * * * * * * * * * * * * * * * * * * * * * * //

dimensions      [0 0 0 1 0 0 0];

internalField   nonuniform List<scalar> 
30892
(
31.78037
32.28612
32.14671
31.88643
32.31912
32.18595
32.32219
32.00533
31.98489
32.36771
32.93091
33.32429
33.17775
32.81926
31.96718
32.31862
32.81652
33.21207
32.99634
32.69788
31.9187
32.23061
32.8205
33.04531
32.8271
32.53429
31.83054
32.24159
32.58321
32.79848
32.73247
32.30201
31.7885
31.78963
32.27845
32.66335
32.5657
32.24937
32.26138
32.43371
32.30653
31.90891
31.89734
31.7931
33.01176
33.71181
34.21211
34.46487
34.36732
34.02537
33.33422
32.43153
31.72024
32.82581
33.63746
34.13911
34.38503
34.28073
33.94153
33.24882
32.27673
32.64751
33.48778
33.98847
34.23297
34.12954
33.75658
33.10283
32.16142
32.46737
33.30017
33.7593
34.04055
33.93532
33.53834
32.92368
31.96588
32.20974
33.01952
33.48747
33.82411
33.6929
33.30308
32.61822
31.73313
32.06067
32.81212
33.2668
33.54236
33.42508
33.06943
32.48834
32.21855
32.64824
32.94671
32.91196
32.42213
31.76654
31.70874
32.01201
31.95391
32.89291
34.15489
34.86506
35.33546
35.52011
35.45369
35.13354
34.53482
33.62125
32.29086
32.86629
34.07999
34.80323
35.261
35.43683
35.37362
35.0643
34.47312
33.54966
32.21572
32.8001
33.9513
34.67959
35.12418
35.30419
35.24322
34.92853
34.35247
33.44558
32.10781
32.62931
33.76726
34.50338
34.93638
35.13672
35.06861
34.74752
34.17722
33.24788
31.94844
32.28391
33.52396
34.28975
34.72328
34.92976
34.85669
34.54171
33.95677
32.87563
31.65442
32.2013
33.26979
34.01447
34.44325
34.64382
34.57402
34.2609
33.68701
32.76638
32.47161
33.35287
33.83794
34.08003
34.01035
33.64006
32.92801
31.84592
32.31953
32.85536
33.23333
33.13851
32.7174
31.83805
31.74367
32.1128
32.02849
32.79256
34.18934
35.16942
35.81627
36.32761
36.43855
36.40389
36.05317
35.50969
34.72579
33.56013
31.95287
32.69008
34.14272
35.10078
35.72286
36.14607
36.20826
36.1809
35.92955
35.43398
34.67189
33.49601
31.87485
32.48949
34.0269
34.97623
35.58832
35.98203
36.07577
36.06503
35.77572
35.3104
34.55734
33.34774
32.26505
33.82347
34.80652
35.42428
35.75242
35.89685
35.85471
35.61152
35.15071
34.37477
33.05416
32.04306
33.55938
34.60064
35.22549
35.56755
35.70733
35.66055
35.43304
34.95555
34.14292
32.81191
31.92474
33.24158
34.31573
34.95373
35.30881
35.45973
35.41788
35.15868
34.67426
33.85759
32.61607
32.45654
33.62911
34.38685
34.80299
34.99245
34.93224
34.63181
34.0539
33.09141
31.75894
32.69129
33.53606
34.06065
34.31302
34.23167
33.86887
33.11361
32.04895
32.3768
32.94759
33.33854
33.23515
32.81059
31.8776
31.68834
32.05741
31.95109
32.23087
33.93487
35.19118
36.12621
36.62982
36.36622
35.66454
34.62656
33.06242
32.14575
33.84768
35.11704
35.9625
36.37479
36.18743
35.56999
34.55779
33.02244
32.00892
33.71305
34.9807
35.75262
36.21193
36.00876
35.42181
34.42212
32.90891
33.50292
34.79174
35.58196
36.03873
36.17016
35.88064
35.23324
34.22695
32.60438
33.15513
34.58598
35.40426
35.89785
36.12129
36.02155
35.71725
35.04004
34.00048
32.30311
32.97615
34.3006
35.13634
35.66073
35.87644
36.02384
35.96775
35.7901
35.42065
34.76812
33.69864
32.13895
32.21656
33.64549
34.59746
35.19819
35.51351
35.69356
35.64967
35.38262
34.92962
34.17796
32.9998
32.70281
33.82943
34.53831
34.95337
35.13278
35.07138
34.78867
34.21898
33.27025
31.87931
32.71137
33.58712
34.11316
34.35511
34.27435
33.92711
33.16162
32.01706
32.19069
32.86118
33.1678
32.98949
32.62588
31.76748
32.14753
33.36457
34.87731
36.05321
36.47738
35.45852
34.19144
32.59048
32.06177
33.23589
34.81223
35.91163
36.24136
35.37647
34.12655
32.48013
31.91929
33.12217
34.68637
35.75253
36.25036
36.03191
35.24027
33.98724
32.27335
32.93043
34.51389
35.52348
36.11813
35.86815
35.07419
33.78851
32.05897
32.63899
34.29583
35.34922
36.00872
35.72504
34.88852
33.5236
31.88236
32.40431
33.99643
35.08537
35.73395
35.9527
35.4488
34.61501
33.26583
33.31681
34.5751
35.30786
35.76811
35.98792
35.92976
35.57179
34.9833
34.05261
32.42979
32.24606
33.81214
34.72005
35.2728
35.63236
35.74377
35.69931
35.51514
35.01523
34.32211
33.14151
32.67454
33.82401
34.54052
34.94106
35.10043
35.04665
34.78748
34.22334
33.29493
31.81084
32.50474
33.4271
33.91721
34.14474
34.06075
33.70046
32.99361
31.82948
31.79142
32.35211
32.66052
32.52938
32.15034
32.25487
33.21772
34.31504
35.64983
36.62414
36.1597
35.03321
33.65643
32.72205
32.21563
33.17091
34.26146
35.56394
36.37254
36.0021
34.97476
33.60645
32.68558
32.12159
33.03076
34.14594
35.43908
36.19122
35.87457
34.86319
33.46277
32.5787
31.92881
32.79727
33.9735
35.28767
36.07001
35.75169
34.70886
33.26954
32.34366
32.5243
33.72458
35.08993
35.93032
35.59412
34.50259
32.98548
32.07625
32.22427
33.41872
34.83151
35.66051
35.9428
35.30221
34.2284
32.68904
32.64665
34.27364
35.24532
35.8402
35.585
34.83168
33.50816
31.90773
33.38047
34.65913
35.40604
35.77424
35.95045
35.60675
35.07553
34.11456
32.47188
32.12573
33.73942
34.68301
35.2244
35.5698
35.66989
35.64144
35.45462
34.97307
34.28051
33.01976
32.23499
33.58765
34.33027
34.72508
34.88418
34.83203
34.56287
34.00715
33.02219
31.87075
32.87732
33.44852
33.6607
33.60381
33.17052
32.39852
32.02515
31.87434
32.27652
33.27197
34.14515
35.06995
36.33227
35.7311
34.51423
33.73307
32.75947
32.2403
33.23416
34.10473
35.0182
36.14374
35.64466
34.47161
33.69401
32.72734
32.15504
33.13167
34.00046
34.91541
36.00866
35.52416
34.36885
33.58975
32.63827
31.92611
32.85924
33.81984
34.76915
35.8381
36.15221
35.3754
34.20651
33.37813
32.39082
32.62652
33.58124
34.58073
35.69613
36.02198
35.19591
33.98672
33.12135
32.14609
32.45366
33.32384
34.31416
35.45646
35.81688
34.94527
33.70173
32.9083
32.51066
33.6824
34.95511
35.72397
35.97761
35.42455
34.40173
32.95103
31.99585
32.69614
34.28405
35.30071
35.86782
35.58989
34.82971
33.53541
31.84339
33.26542
34.51771
35.32137
35.71157
35.9377
35.85447
35.52498
34.94415
33.9696
32.23955
31.7433
33.37501
34.4088
34.98917
35.30669
35.43003
35.3927
35.18458
34.74304
33.9533
32.65954
31.68289
32.99933
33.81309
34.3138
34.49892
34.436
34.10281
33.41345
32.36415
31.93737
32.6702
32.98801
32.85365
32.3865
32.25569
33.2731
34.16858
34.89121
35.71716
36.34236
35.2083
34.54949
33.74607
32.74908
32.21635
33.23527
34.12874
34.84385
35.63681
36.1677
35.15302
34.50709
33.70744
32.71621
32.12213
33.13272
34.02857
34.74508
35.52549
36.02979
35.05055
34.40866
33.60502
32.62426
31.92914
32.85995
33.84849
34.59945
35.38604
35.89218
34.90874
34.24888
33.39225
32.37862
32.62676
33.61942
34.41166
35.20839
36.06226
35.72536
34.73046
34.04299
33.14126
32.12996
32.45374
33.37431
34.15414
34.96359
35.85278
35.49425
34.48202
33.7857
32.93453
32.5732
33.48143
34.45358
35.46997
35.83241
35.0432
33.87692
33.02821
32.01893
32.409
33.58911
34.91043
35.66894
35.9474
35.37081
34.36773
32.8692
31.89788
32.36097
34.10799
35.09632
35.68369
35.91598
35.43053
34.68203
33.37733
32.82348
34.23389
35.03256
35.51318
35.76832
35.84847
35.83402
35.64744
35.33769
34.68725
33.59265
31.83527
32.722
33.90243
34.57577
34.95739
35.11266
35.059
34.79788
34.28756
33.38936
31.85327
32.00661
33.04341
33.64534
33.90688
33.79278
33.34204
32.5757
32.05929
31.91832
32.14764
33.21798
34.14574
34.89229
35.53932
36.30325
35.8504
35.22312
34.53872
33.70779
32.67409
32.06185
33.17116
34.10528
34.84489
35.4665
36.1299
35.75259
35.16609
34.4968
33.66581
32.62648
31.91924
33.03099
34.00082
34.74594
35.35426
36.0007
35.63094
35.06198
34.3975
33.54942
32.46351
32.79745
33.82008
34.59987
35.21489
35.89327
35.49361
34.92016
34.23669
33.34277
32.23881
32.52438
33.5814
34.41209
35.04408
35.72112
36.07502
35.3214
34.74478
34.02666
33.07347
31.96016
32.22429
33.32395
34.15494
34.79018
35.48617
35.87867
35.05524
34.49532
33.76613
32.81931
32.51079
33.48186
34.25916
35.03307
35.90916
35.52416
34.57207
33.89783
33.00483
31.94043
32.40911
33.40282
34.38107
35.41702
35.78066
34.97893
33.80234
32.93538
31.85445
32.09379
33.43532
34.78812
35.56367
35.87448
35.25634
34.189
32.63422
31.8211
33.70176
34.86828
35.4978
35.89426
35.73371
35.25891
34.38249
32.86165
31.87622
33.61749
34.60722
35.14838
35.48629
35.61807
35.56378
35.38114
34.92329
34.23011
32.87771
31.68195
33.09182
33.91522
34.44212
34.63809
34.56757
34.21956
33.52058
32.43263
31.80201
32.5855
32.87799
32.78854
32.24933
32.23085
33.36452
34.31499
35.0701
35.71743
36.30339
36.54854
36.04215
35.40224
34.71447
33.86382
32.82328
32.14575
33.23587
34.26145
35.01829
35.63706
36.13002
36.31428
35.91241
35.34103
34.66615
33.79249
32.72735
32.00895
33.12218
34.14597
34.91543
35.52565
36.0008
36.17248
35.80782
35.23518
34.56097
33.66925
32.54976
32.93047
33.97348
34.76917
35.38615
35.89334
36.07368
35.66774
35.09365
34.40409
33.48341
32.32558
32.639
33.72458
34.58076
35.20847
35.7212
36.07698
35.92156
35.47658
34.91451
34.1908
33.1565
32.0433
32.40427
33.41871
34.31419
34.96366
35.48625
35.89484
35.6815
35.23005
34.66332
33.89996
32.97897
32.64673
33.68266
34.45358
35.03319
35.5772
35.94468
35.3282
34.76369
34.09976
33.19955
32.04072
32.69634
33.58928
34.3813
35.14276
35.89374
35.53623
34.68661
34.02419
33.20383
32.06881
32.36089
33.43363
34.4319
35.38409
35.78976
35.02543
33.85622
32.98053
31.88509
31.82095
33.29392
34.62047
35.4146
35.77341
35.092
34.02369
32.3249
33.35953
34.57413
35.28176
35.7009
35.89166
35.80494
35.50379
35.02953
34.01925
32.27225
33.09444
34.18252
34.80731
35.22263
35.3703
35.33095
35.09444
34.5462
33.71232
32.12983
32.02248
33.15737
33.69659
34.00412
33.9102
33.5288
32.67649
32.06253
31.90639
32.79249
33.93478
34.87726
35.64984
36.33231
36.5851
36.03716
35.27101
34.43962
33.38218
32.17076
32.68997
33.84755
34.81208
35.56404
36.14378
36.33887
35.89911
35.20088
34.37221
33.22186
32.10285
32.48938
33.71286
34.68584
35.43929
36.00872
36.19479
35.77802
35.07897
34.23781
33.08771
31.94971
32.26496
33.50283
34.5137
35.28771
35.83813
36.05819
35.62925
34.92263
34.04012
32.9019
31.75936
32.043
33.15508
34.29578
35.08991
35.69613
36.06228
35.90249
35.40474
34.7247
33.78395
32.64289
31.92468
32.97611
33.99639
34.83148
35.45647
35.8528
36.02257
35.65002
35.1607
34.45393
33.43765
32.37808
32.21652
33.3166
34.27365
34.95513
35.47001
35.90918
35.66081
35.22521
34.64448
33.83873
32.8122
32.24606
33.38039
34.28408
34.91058
35.41707
35.89378
35.64515
35.17239
34.62212
33.88077
32.89257
31.6947
32.12596
33.26548
34.10817
34.7882
35.3841
35.82153
35.12098
34.47277
33.66488
32.75717
31.74355
32.82366
33.70175
34.62059
35.49195
35.86146
35.12472
34.11515
33.32116
32.22146
31.87637
33.35983
34.80592
35.47848
35.82986
35.15161
34.13099
32.40266
33.30185
34.56707
35.27288
35.716
35.89888
35.83397
35.50825
35.03266
34.0024
32.20852
32.85445
33.91673
34.61144
35.00304
35.246
35.197
34.83819
34.35941
33.52563
31.97371
31.92177
32.9493
33.49373
33.74148
33.66427
33.19265
32.35568
32.19212
32.44344
32.29708
31.87643
31.79307
32.8929
34.18932
35.19113
36.05319
36.62413
36.36716
35.62591
34.71973
33.58688
32.28912
31.72022
32.86626
34.1427
35.11701
35.91159
36.37252
36.17906
35.5305
34.66018
33.54988
32.19142
32.80007
34.02687
34.98068
35.7525
36.19121
35.96627
35.38228
34.53445
33.45092
32.16157
32.62928
33.82344
34.79171
35.52343
36.06999
35.82384
35.18412
34.34344
33.25162
32.00429
32.28388
33.55935
34.58596
35.34917
35.93031
36.09269
35.68116
34.99178
34.11779
32.88368
31.75306
32.20126
33.24154
34.30059
35.08521
35.66051
35.89341
35.39937
34.72215
33.81287
32.76388
32.45652
33.64546
34.57512
35.24531
35.72396
35.93431
35.51659
34.93742
34.15093
33.06287
31.8234
32.7028
33.81214
34.65911
35.30082
35.66897
35.89162
35.486
34.99307
34.27749
33.26459
32.02995
32.67458
33.73953
34.51773
35.09635
35.56368
35.84523
35.36162
34.82687
34.16178
33.23243
31.98673
32.23505
33.37507
34.23393
34.8683
35.41464
35.8392
35.16589
34.58123
33.85209
32.87573
31.71263
31.68292
32.72202
33.61752
34.57414
35.47817
35.85177
35.10722
34.04969
33.22892
32.13423
31.68193
33.09435
34.56704
35.42691
35.80008
35.08202
33.92005
32.14746
32.85527
34.28461
35.08343
35.50263
35.79112
35.88573
35.85439
35.66309
35.32971
34.71391
33.69404
31.88232
32.02614
33.4885
34.29216
34.72795
34.9023
34.84816
34.57434
33.96208
32.93791
32.21789
33.04624
33.63697
33.92525
33.82926
33.46494
32.68246
31.5961
31.7086
32.28218
32.69529
32.59935
32.12178
33.01175
34.15488
35.1694
36.1262
36.52513
35.63704
34.679
33.60096
32.43782
32.82579
34.07997
35.10076
35.96248
36.26003
35.54081
34.61766
33.48868
32.29193
32.64748
33.95128
34.9762
35.7526
36.25034
36.03412
35.39417
34.49923
33.33607
32.01942
32.46734
33.76724
34.80649
35.58194
36.11811
35.89755
35.22447
34.32468
33.14311
31.86124
32.20972
33.52393
34.60059
35.40423
36.00869
35.74481
35.03206
34.10158
32.88512
31.65891
32.06068
33.26969
34.31571
35.13631
35.73392
35.9642
35.46353
34.75569
33.81963
32.70088
32.47154
33.62908
34.59743
35.30784
35.84019
35.59974
34.98203
34.15079
33.04415
31.8332
32.69127
33.82942
34.72004
35.40604
35.86781
35.62745
35.0848
34.30841
33.30173
31.93914
32.71137
33.82401
34.68302
35.32137
35.68369
35.90965
35.50627
35.02044
34.29751
33.27275
32.03185
32.50475
33.58766
34.4088
35.03257
35.4978
35.7547
35.31994
34.74747
34.03054
33.07532
31.8399
31.87076
32.99934
33.90244
34.60723
35.28176
35.7235
34.8992
34.29619
33.44539
32.43218
32.00661
33.09181
34.1825
35.27286
35.71095
34.80588
33.51348
32.57245
32.0225
33.91684
35.08345
35.63256
35.92505
35.40549
34.60776
33.14172
31.92176
33.48803
34.54959
35.11904
35.54269
35.68108
35.65173
35.44218
34.88056
34.1467
32.8523
32.21796
33.41007
34.1593
34.64066
34.85064
34.78817
34.47246
33.82413
32.90712
31.86955
32.8892
33.52033
33.80827
33.7126
33.29766
32.5011
31.6469
32.27805
32.51298
32.37296
31.88963
32.36766
33.71178
34.86504
35.81625
36.62981
36.27463
35.36084
34.3172
33.0575
31.80777
32.31857
33.63743
34.8032
35.72283
36.37477
36.11885
35.29194
34.252
32.97857
31.82046
32.23056
33.48775
34.67954
35.58827
36.21189
35.98175
35.16757
34.11893
32.814
31.80971
32.24154
33.30014
34.50333
35.42423
36.03868
35.81433
35.00083
33.92749
32.70704
31.78958
33.01947
34.28971
35.22542
35.89779
36.11179
35.58715
34.79919
33.69046
32.34512
32.81208
34.01449
34.95365
35.66067
35.88361
35.33006
34.52022
33.44531
32.33154
32.21854
33.35285
34.3868
35.19813
35.76806
35.98508
35.5506
34.82122
33.89882
32.76192
32.31952
33.53603
34.53827
35.27276
35.77421
35.97398
35.56837
34.93801
34.07741
32.93068
31.73594
32.37678
33.5871
34.5405
35.22438
35.71156
35.92083
35.51315
34.9158
34.10808
32.99645
31.76829
32.19069
33.4271
34.33027
34.98916
35.51318
35.89426
35.74853
35.27269
34.69338
33.91828
32.88066
31.68934
31.79142
32.87731
33.81309
34.57577
35.14837
35.70089
35.47905
34.89836
34.23722
33.33463
32.30458
31.93737
33.04341
33.91522
34.80731
35.71599
35.35012
34.31539
33.4757
32.50882
31.80201
33.15737
34.61146
35.50263
35.90037
35.22223
33.94135
32.32627
32.94929
34.29214
35.11911
35.67106
35.91578
36.04549
36.03906
35.87572
35.53314
34.81091
33.72402
31.97145
33.04624
34.15927
34.84202
35.25514
35.43967
35.39492
35.11931
34.59407
33.71375
32.27078
31.70857
32.88916
33.77774
34.26318
34.51412
34.43664
34.08845
33.43955
32.37029
31.64683
32.42143
32.94023
33.2691
33.1626
32.73256
32.16451
31.68858
31.9112
31.88601
31.78031
32.93086
34.21206
35.33543
36.32761
36.65672
35.82857
34.80041
33.58376
32.25904
31.88637
32.81646
34.13905
35.26096
36.14606
36.39815
35.72516
34.73402
33.49149
32.25128
32.82043
33.98841
35.12413
35.98198
36.17644
35.57633
34.59511
33.35826
32.41351
32.58314
33.75923
34.93627
35.75224
36.04354
35.38663
34.39269
33.11429
32.21602
32.27837
33.48739
34.72312
35.56714
36.12098
35.90745
35.18917
34.15671
32.81275
31.89097
32.26131
33.26674
34.44313
35.30857
35.87628
35.63544
34.91796
33.88763
32.64151
32.6482
33.83783
34.80278
35.51325
35.98777
35.79495
35.19181
34.35767
33.26376
32.12762
31.70873
32.85529
34.06052
34.95322
35.63223
35.86452
35.31677
34.54609
33.50513
32.25406
31.74366
32.94756
34.11311
34.941
35.56975
35.93766
35.79843
35.28147
34.56863
33.5861
32.33963
31.68834
32.86117
33.9172
34.72506
35.30668
35.76831
35.95603
35.58397
35.05397
34.36767
33.43145
32.18
32.35211
33.44851
34.31379
34.95738
35.48628
35.89165
35.74773
35.25238
34.67923
33.92618
32.94229
31.84066
32.6702
33.64534
34.44212
35.22262
35.89888
35.68888
34.79472
34.09862
33.19639
32.19259
32.5855
33.69659
35.00304
35.79111
35.55041
34.51585
33.05463
32.13439
33.49372
34.72795
35.54268
35.91577
36.19118
35.87235
35.23435
34.25209
32.59046
32.1921
33.63694
34.64063
35.25512
35.60485
35.83312
35.82742
35.54341
35.06261
34.26928
33.00179
32.28212
33.52025
34.26312
34.73232
34.95731
34.90886
34.5859
33.99526
32.97792
31.66944
32.2779
32.94009
33.53593
33.7773
33.69079
33.30547
32.61213
31.77046
31.68832
32.43631
32.45874
32.38257
32.1367
32.28611
33.32427
34.46487
35.52009
36.43865
35.99427
35.01511
33.89253
32.76453
32.3191
33.21206
34.38504
35.43686
36.20833
35.86892
34.94322
33.79183
32.71117
32.32216
33.0453
34.233
35.30427
36.0759
35.7214
34.80821
33.61916
32.60325
31.98486
32.79847
34.0406
35.13691
35.89732
36.13584
35.55498
34.63191
33.40836
32.30197
32.66335
33.82419
34.93013
35.70895
36.00818
35.3573
34.41805
33.2141
32.24225
32.43371
33.54244
34.64419
35.46112
36.02651
35.782
35.09238
34.12295
32.96789
32.08796
31.89732
32.94662
34.0797
34.99089
35.68608
35.92417
35.36115
34.5702
33.53876
32.36818
32.01198
33.23315
34.31263
35.1323
35.74341
35.94256
35.46549
34.75852
33.80768
32.62076
32.11277
33.33846
34.35501
35.10033
35.66981
35.88657
35.41558
34.76358
33.89057
32.73769
32.0574
33.16778
34.14471
34.88415
35.43
35.84844
35.69076
35.20135
34.5583
33.69255
32.63956
32.66051
33.66069
34.49891
35.11265
35.61806
35.88798
35.40695
34.85342
34.13622
33.12659
32.15173
32.02515
32.98801
33.90688
34.63808
35.3703
35.86088
34.98037
34.33886
33.49096
32.53327
32.05929
32.87799
34.00412
35.24599
35.88573
35.72773
34.77728
33.3223
32.52315
32.06253
33.74148
34.9023
35.68107
36.04549
36.09886
35.46068
34.48117
33.03915
32.44344
33.92525
34.85063
35.43966
35.83312
35.97983
36.00069
35.80053
35.32538
34.55104
33.33762
32.69528
33.80825
34.5141
34.9573
35.17188
35.1416
34.86784
34.30993
33.38134
32.08625
32.51292
33.26904
33.77729
34.08181
33.99548
33.66279
33.0615
32.03835
31.91106
32.45873
32.92612
32.80865
32.46088
32.14675
33.1778
34.36738
35.45376
36.40393
35.93348
34.93596
33.77089
32.60473
32.186
32.99639
34.2808
35.37369
36.18098
35.81594
34.864
33.64268
32.48904
32.00538
32.82716
34.12961
35.24333
36.06516
36.28296
35.67709
34.72967
33.47322
32.30009
32.73254
33.93541
35.06877
35.85495
36.10799
35.50145
34.54676
33.29652
32.34703
32.56578
33.69301
34.8569
35.66093
35.97518
35.3007
34.3212
33.06038
32.20542
32.30658
33.42518
34.57423
35.41834
35.96841
35.76087
35.03672
34.03416
32.81654
31.9455
32.91194
34.01023
34.93181
35.6487
35.85715
35.31229
34.50485
33.47587
32.41156
31.9539
33.13841
34.23145
35.07112
35.6991
35.90759
35.41482
34.68881
33.71805
32.54177
32.02847
33.23509
34.27427
35.04658
35.64138
35.87162
35.37505
34.69939
33.79742
32.64471
31.95109
32.98948
34.06073
34.83201
35.39268
35.834
35.67102
35.16047
34.49683
33.58246
32.48267
32.52937
33.6038
34.43599
35.05899
35.56378
35.87197
35.36404
34.80136
34.07151
33.10165
32.04256
31.87434
32.85365
33.79278
34.56757
35.33095
35.87803
34.93689
34.25477
33.32396
32.37918
31.91832
32.78854
33.91021
35.197
35.8544
35.74202
34.71133
33.26248
32.38832
31.90639
33.66428
34.84817
35.65174
36.03907
36.20202
35.47862
34.44261
32.91999
32.2971
33.82927
34.7882
35.39494
35.82743
36.00069
36.11582
35.8329
35.33181
34.513
33.18353
32.5994
33.71268
34.43671
34.90889
35.1416
35.13014
34.83768
34.24736
33.30318
32.00729
32.37313
33.16278
33.69085
33.99548
33.90746
33.57733
32.88488
31.95377
31.88636
32.38266
32.80866
32.64952
32.37889
32.81931
34.02543
35.13358
36.05319
36.45928
35.61263
34.60383
33.42352
32.29809
32.69794
33.94159
35.06434
35.92959
36.24651
35.52871
34.53407
33.31725
32.23001
32.53435
33.75664
34.92858
35.77578
36.0926
35.39058
34.38478
33.09429
32.17996
32.30207
33.5384
34.74758
35.6116
36.17024
35.95955
35.22133
34.18408
32.89247
31.88115
32.24943
33.30314
34.54178
35.43313
36.02165
35.8019
35.02946
33.96122
32.6901
31.90896
33.06949
34.26097
35.15876
35.79019
36.03714
35.50572
34.75075
33.6975
32.45107
32.42216
33.64006
34.63179
35.38259
35.92975
35.69579
35.04114
34.17194
33.05241
31.75259
32.71739
33.86884
34.78862
35.5151
35.95043
35.74599
35.17538
34.36797
33.32205
32.08489
32.81058
33.92709
34.78746
35.4546
35.85446
35.67018
35.15289
34.40097
33.40711
32.16626
32.62588
33.70045
34.56286
35.18457
35.64744
35.90251
35.50198
34.91612
34.18891
33.14889
32.07137
32.15034
33.17052
34.1028
34.79788
35.38114
35.80494
35.65699
35.14147
34.51174
33.6986
32.70656
32.3865
33.34204
34.21956
35.09444
35.83397
35.60755
34.63222
33.86279
32.93234
31.9047
32.24932
33.5288
34.83819
35.6631
36.39109
35.54214
34.35006
32.7638
31.86377
33.19266
34.57436
35.44221
35.87573
36.19118
36.47713
36.08441
35.24361
34.10306
32.35322
31.87643
33.46495
34.47248
35.11934
35.54341
35.80053
35.83292
35.62127
35.05099
34.18007
32.84451
32.12181
33.29772
34.08849
34.58588
34.86783
34.83773
34.51048
33.87738
32.89577
31.88976
32.73265
33.30539
33.66275
33.57747
33.13718
32.44799
32.13654
32.46077
32.37918
31.80441
31.96721
33.33425
34.53484
35.5097
36.36623
35.94922
35.04561
33.96858
32.59392
31.91874
33.24885
34.47315
35.434
36.18745
35.83644
34.98388
33.89645
32.5215
31.83058
33.10286
34.3525
35.31042
36.00878
36.23977
35.69334
34.86694
33.76434
32.38664
31.78854
32.92371
34.17725
35.15074
35.88066
36.1167
35.539
34.70228
33.57914
32.29098
32.61825
33.9568
34.95557
35.71727
35.95786
35.35535
34.49796
33.33807
32.11045
32.48837
33.68704
34.67429
35.42068
35.95273
35.72058
35.08049
34.21473
33.10605
31.92048
31.76656
32.92803
34.05391
34.92961
35.5718
35.78462
35.28465
34.52898
33.52585
32.36122
31.83805
33.11361
34.21896
35.01523
35.60676
35.85215
35.34221
34.65774
33.71738
32.53288
31.8776
33.16162
34.22334
34.97308
35.52498
35.91599
35.76845
35.28742
34.64607
33.74465
32.59168
31.76748
32.99362
34.00715
34.74305
35.3377
35.73371
35.97409
35.57636
35.0775
34.42579
33.56046
32.40261
32.39852
33.41345
34.28757
34.9233
35.5038
36.00593
35.30051
34.6701
33.9245
32.998
31.86631
32.57569
33.52059
34.5462
35.50825
36.1221
35.23645
34.02219
33.15645
32.04584
32.67649
34.35941
35.32971
35.92505
35.98384
35.05426
33.72044
31.92395
32.35569
33.96209
34.88056
35.53314
35.87234
36.09886
36.20203
36.08443
35.49706
34.69914
33.37715
32.6825
33.82415
34.59407
35.06262
35.32551
35.33198
35.05105
34.42784
33.41048
31.95977
32.50113
33.43953
33.99519
34.30988
34.24741
33.87745
33.10457
31.96223
32.16446
32.61191
33.06137
32.88505
32.44814
31.78046
32.43154
33.62127
34.7258
35.66455
36.47738
36.10344
35.21325
34.19663
33.02833
31.88276
32.27675
33.54967
34.6719
35.56999
36.24137
35.95339
35.14527
34.144
32.87659
31.81028
32.16144
33.44559
34.55736
35.42182
36.03192
36.23722
35.79849
35.01645
34.036
32.78881
31.96589
33.24789
34.37478
35.23325
35.86817
36.11718
35.57834
34.83592
33.84671
32.59813
31.73314
32.87564
34.14292
35.04005
35.72505
35.98822
35.40145
34.62928
33.57297
32.31842
32.76638
33.85761
34.76817
35.44879
35.94281
35.71742
35.13958
34.34707
33.33054
32.17686
31.84594
33.09144
34.17798
34.98328
35.58504
35.97764
35.83605
35.31229
34.61863
33.67435
32.52134
32.04895
33.27024
34.32193
35.07568
35.58995
35.94743
35.83873
35.39631
34.74013
33.84613
32.72472
32.01709
33.29499
34.28057
34.94418
35.43056
35.8745
35.66596
35.21671
34.65866
33.84718
32.7404
31.82953
33.02224
33.95335
34.68728
35.25893
35.77342
35.52777
35.01656
34.37719
33.48318
32.48699
32.36418
33.38938
34.23012
35.02954
35.82987
35.5113
34.60734
33.88589
32.96352
31.83919
32.43262
33.71232
35.03266
35.80008
35.55002
34.53599
33.0246
31.94
33.52563
34.71391
35.40549
35.90036
36.39108
35.98383
35.34998
34.36345
32.62365
32.93791
34.1467
34.81089
35.23433
35.46067
35.47864
35.24364
34.69934
33.76605
32.22282
31.59611
32.90712
33.71374
34.26927
34.5511
34.5131
34.18016
33.41061
32.34062
32.37026
32.97784
33.38126
33.30323
32.89588
31.96228
31.77034
32.03837
31.95399
32.29087
33.56014
34.62657
35.45852
36.15971
36.50208
35.81441
35.06463
34.12948
32.91827
32.21573
33.49602
34.5578
35.37648
36.00211
36.26222
35.71113
34.99346
34.05678
32.86735
32.10782
33.34776
34.42213
35.24028
35.87458
36.13189
35.57415
34.86018
33.91376
32.74386
31.94845
33.05417
34.22697
35.0742
35.7517
36.15222
35.9966
35.42907
34.68155
33.69375
32.51617
31.65443
32.81193
34.00049
34.88853
35.59414
36.02199
35.81673
35.25923
34.47958
33.46026
32.13059
32.61611
33.69865
34.615
35.30227
35.8169
36.01353
35.59232
34.98768
34.19101
33.1431
32.0805
31.75897
32.99985
34.05263
34.83168
35.42453
35.83242
36.00358
35.62762
35.15273
34.47895
33.56701
32.30051
31.87948
33.142
34.11463
34.82975
35.37085
35.78069
35.97589
35.58063
35.12265
34.51034
33.68199
32.57046
31.81115
33.01999
33.96974
34.68213
35.2564
35.78978
35.51418
34.99876
34.36758
33.50569
32.40923
32.65972
33.59277
34.38257
35.09204
35.86146
35.526
34.71358
34.06145
33.20028
32.03665
31.85336
32.87777
34.01928
35.15161
35.85177
35.60738
34.71231
33.38726
32.35181
32.12984
34.00241
35.08202
35.71095
36.12211
35.54987
34.69531
33.29851
31.9737
33.69403
34.60775
35.22223
35.5504
35.72773
35.74202
35.54215
35.05429
34.36396
33.06387
32.8523
33.72401
34.25208
34.48117
34.44264
34.10308
33.37711
32.2224
32.27076
33.00177
33.33764
33.18357
32.84456
31.9598
31.6694
32.08624
32.00735
31.95288
33.06244
34.19145
35.03322
35.73111
36.34236
36.59328
36.06421
35.39702
34.64009
33.67551
32.49001
31.87486
33.02246
34.12657
34.97477
35.64468
36.16771
36.34524
35.93094
35.33001
34.58137
33.61676
32.39719
32.90894
33.98727
34.86321
35.52417
36.0298
36.21363
35.81454
35.21529
34.46206
33.45625
32.3194
32.60443
33.78855
34.70889
35.37542
35.89219
36.07607
35.67426
35.06689
34.2921
33.20056
32.07095
32.30316
33.52365
34.50262
35.19593
35.72537
36.07502
35.92291
35.48544
34.87714
34.05593
32.94257
31.80936
32.139
33.2659
34.22842
34.94529
35.49427
35.87868
36.04946
35.69527
35.2345
34.62106
33.78077
32.63895
32.4299
33.50822
34.40175
35.04325
35.52419
35.94467
35.76204
35.34492
34.74947
34.00171
33.0584
31.90365
32.47201
33.53556
34.36783
34.979
35.53625
35.94087
35.28307
34.70254
34.00373
33.09745
31.91115
32.23997
33.37757
34.18914
35.02546
35.82152
35.43868
34.55719
33.77106
32.89524
31.76103
31.83563
32.86183
34.02374
35.12471
35.83919
35.52629
34.68132
33.36801
32.30814
32.27229
34.13097
35.1072
35.7235
36.00593
35.51129
34.71227
33.44146
32.20851
33.92004
34.80587
35.35012
35.68888
35.86088
35.87803
35.60755
35.23645
34.53598
33.29852
31.88231
33.14172
33.94134
34.51584
34.77728
34.71133
34.35006
33.72047
32.6238
31.97144
32.59045
33.03916
32.92
32.35325
32.59051
33.65645
34.51424
35.20832
35.85039
36.54853
36.24841
35.53138
34.87533
34.11024
33.14941
31.99237
32.48017
33.60648
34.47164
35.15303
35.75259
36.31428
36.07912
35.46114
34.82912
34.06636
33.08526
31.93872
32.27342
33.46282
34.36887
35.05057
35.63095
36.17248
35.95692
35.35217
34.73093
33.95157
32.86763
32.05907
33.2696
34.20653
34.90876
35.49362
36.07368
35.85159
35.21343
34.58563
33.77212
32.69366
31.88245
32.98554
33.98675
34.73047
35.3214
35.92157
35.66592
35.03836
34.39291
33.5226
32.38072
32.68909
33.70175
34.48202
35.05521
35.68151
36.04949
35.29753
34.78989
34.12751
33.17864
32.14511
31.90779
32.95107
33.87695
34.57209
35.32819
35.76209
34.86625
34.25815
33.45129
32.39618
31.84353
32.86928
33.80239
34.68658
35.64512
35.97588
35.28306
34.1719
33.39262
32.3184
32.63432
33.85617
35.12093
35.84521
35.51416
34.55802
33.14046
32.08646
32.32479
34.11507
35.16586
35.75469
35.97408
35.52776
34.71352
33.36823
32.40258
34.04967
34.89918
35.47905
35.74772
35.88798
35.87197
35.65699
35.30051
34.60734
33.3873
32.14745
33.51349
34.31538
34.79471
34.98036
34.93689
34.63222
34.0222
33.0246
32.32627
33.05463
33.3223
33.26248
32.76381
31.92397
32.72207
33.73308
34.54949
35.22311
36.04214
36.59335
35.53188
34.89943
34.16317
33.25513
32.22093
32.68562
33.69403
34.5071
35.16608
35.9124
36.34532
35.46162
34.85179
34.12357
33.21553
32.17373
32.57876
33.58977
34.40866
35.06198
35.80781
36.21369
35.35257
34.75317
34.02341
33.10644
32.04894
32.34373
33.37817
34.24888
34.92016
35.66774
36.07611
35.21368
34.60843
33.84324
32.83728
32.07632
33.12138
34.04301
34.74479
35.47657
35.92296
35.0387
34.42352
33.61258
32.59747
32.90833
33.78573
34.49549
35.23002
36.02256
35.69533
34.79043
34.16656
33.36735
32.3856
31.99588
33.02818
33.89762
34.76369
35.66079
36.00358
35.34496
34.25851
33.49755
32.5634
31.8979
32.93534
34.02413
35.17233
35.8916
35.58063
34.70267
33.39305
32.46738
32.98035
34.47266
35.36158
35.90964
35.66596
34.99875
33.77124
32.08594
33.321
34.58118
35.31992
35.74852
35.95603
35.9025
35.57636
35.01654
34.06142
32.30822
33.22888
34.29617
34.89835
35.25238
35.40694
35.36404
35.14147
34.67009
33.88589
32.35182
32.57244
33.4757
34.09863
34.33886
34.25477
33.86279
33.15645
31.94
32.13439
32.52315
32.38833
31.86378
32.75947
33.74606
34.53869
35.40222
36.5851
36.06432
34.87584
34.16503
33.27911
32.27234
32.72734
33.70743
34.49678
35.34102
36.33887
35.93102
34.82961
34.12543
33.2417
32.23588
32.63828
33.60502
34.39749
35.23516
36.19478
35.81459
34.73126
34.02497
33.14039
32.14949
32.39084
33.39225
34.23668
35.09363
36.05818
35.67431
34.58584
33.84398
32.86904
31.92643
32.14611
33.14126
34.02664
34.91449
35.90248
35.4855
34.39303
33.61293
32.63985
32.93455