/*--------------------------------*- C++ -*----------------------------------*\
| =========                 |                                                 |
| \\      /  F ield         | OpenFOAM: The Open Source CFD Toolbox           |
|  \\    /   O peration     | Version:  5.x                                   |
|   \\  /    A nd           | Web:      www.OpenFOAM.org                      |
|    \\/     M anipulation  |                                                 |
\*---------------------------------------------------------------------------*/
FoamFile
{
    version     2.0;
    format      ascii;
    class       volScalarField;
    location    "100/gland";
    object      T;
}
// * * * * * * * * * * * * * * * * * * * * * * * * * * * * * * * * * * * * * //

dimensions      [0 0 0 1 0 0 0];

internalField   nonuniform List<scalar> 
203172
(
36.69655
36.75622
36.75599
36.74385
36.21726
36.25081
36.24879
36.23825
35.93465
35.92873
35.9206
35.69656
35.68679
35.68911
35.49498
35.50814
36.78602
36.85442
36.88343
36.89484
36.8967
36.88975
36.87262
36.82338
36.70357
36.24306
36.38944
36.47803
36.51254
36.52011
36.49232
36.44825
36.33526
35.9175
36.0376
36.16973
36.20568
36.21471
36.18507
36.12536
36.01644
35.66756
35.78909
35.92153
35.95279
35.96272
35.94026
35.87315
35.76364
35.4958
35.59453
35.70142
35.73966
35.74528
35.73018
35.64982
35.56218
35.32093
35.41951
35.50372
35.55592
35.56087
35.53886
35.44029
35.36604
35.24639
35.30001
35.38381
35.3913
35.35799
35.28076
35.16994
35.08448
35.14917
35.21534
35.22381
35.16703
35.12583
35.04714
34.93607
35.00455
35.03468
35.0371
35.01962
34.98409
34.84144
34.90218
34.90122
34.88347
34.82623
36.83723
36.88933
36.91505
36.92684
36.93155
36.93262
36.92942
36.92241
36.90545
36.87654
36.74138
36.37052
36.50378
36.58769
36.63823
36.65836
36.663
36.64917
36.6188
36.5546
36.46492
36.26015
36.04832
36.20411
36.30858
36.38014
36.40735
36.41331
36.39602
36.35085
36.26755
36.15335
35.94923
35.79741
35.95714
36.07466
36.15376
36.18367
36.18947
36.17293
36.11952
36.02809
35.89634
35.71514
35.59003
35.74544
35.86788
35.94933
35.98526
35.99043
35.97326
35.91155
35.81529
35.64844
35.51162
35.41186
35.56007
35.6812
35.76359
35.80841
35.8152
35.79198
35.72537
35.6177
35.46495
35.3322
35.22472
35.39211
35.50948
35.59195
35.64325
35.6525
35.6222
35.55703
35.4489
35.3004
35.07946
35.20065
35.34247
35.43491
35.48249
35.49198
35.46102
35.39807
35.28989
35.14994
34.93918
35.05077
35.19243
35.2861
35.33073
35.3379
35.31187
35.24508
35.13511
35.00228
34.9054
34.99325
35.10066
35.15279
35.16044
35.12738
35.0614
34.94584
34.8344
34.73041
34.79827
34.86963
34.87697
34.82338
34.76436
34.65139
34.53907
34.60773
34.61316
34.56663
34.51143
36.72542
36.86099
36.91123
36.92995
36.94156
36.9484
36.95143
36.95205
36.9502
36.94558
36.93656
36.92289
36.89194
36.82981
36.22888
36.40756
36.57699
36.65612
36.70537
36.73642
36.75038
36.75318
36.74481
36.72344
36.6838
36.62518
36.50758
36.34428
36.08185
36.29388
36.40914
36.48274
36.53069
36.55234
36.55648
36.54397
36.5102
36.45039
36.36192
36.20391
35.97554
35.83412
36.05407
36.18772
36.27857
36.33765
36.3648
36.36967
36.35464
36.31197
36.23849
36.12919
35.95922
35.71941
35.63669
35.84627
35.98784
36.09023
36.15737
36.19014
36.19581
36.17789
36.12775
36.04415
35.92114
35.75332
35.52351
35.46264
35.65729
35.80791
35.91649
35.9893
36.02776
36.03473
36.01287
35.95709
35.86616
35.7373
35.56697
35.37664
35.29463
35.48019
35.6414
35.75465
35.83154
35.8739
35.8821
35.85689
35.79786
35.70227
35.56784
35.36474
35.21062
35.11421
35.32306
35.48173
35.60077
35.68215
35.7256
35.73414
35.70794
35.64675
35.54672
35.40914
35.21283
34.97676
35.16784
35.33146
35.45421
35.53946
35.58388
35.59222
35.56599
35.50196
35.39811
35.25296
35.06952
34.83864
34.98798
35.14901
35.2716
35.36125
35.40814
35.41687
35.3889
35.32161
35.21573
35.07969
34.92681
34.70672
34.849
34.9808
35.07487
35.12367
35.13368
35.10205
35.0338
34.92652
34.79126
34.60386
34.69043
34.78636
34.83985
34.85564
34.81729
34.7495
34.64718
34.53201
34.42392
34.52405
34.55117
34.55314
34.53517
34.47086
36.87064
36.91516
36.93884
36.95083
36.9582
36.96281
36.96504
36.96547
36.96417
36.96084
36.95492
36.9458
36.92901
36.89915
36.79096
36.39752
36.59473
36.69362
36.74874
36.78332
36.80519
36.81588
36.81792
36.81172
36.79579
36.76789
36.72527
36.65124
36.52312
36.28933
36.09999
36.32301
36.46426
36.55127
36.60775
36.64386
36.66163
36.66498
36.65475
36.62823
36.58249
36.51331
36.40177
36.22578
35.969
35.84969
36.09293
36.25535
36.36384
36.43736
36.48476
36.50844
36.51285
36.4993
36.46413
36.40434
36.31521
36.18201
35.98552
35.72576
35.65018
35.89371
36.06505
36.18776
36.27414
36.33057
36.35955
36.36496
36.34831
36.30587
36.23505
36.13152
35.98612
35.78412
35.54132
35.48866
35.71401
35.88909
36.02303
36.1188
36.18232
36.21596
36.22239
36.20275
36.1544
36.07515
35.96121
35.80616
35.61044
35.39365
35.32835
35.54009
35.72474
35.86772
35.9707
36.03975
36.077
36.08428
36.0622
36.00937
35.92364
35.80176
35.63614
35.44131
35.23475
35.13582
35.37715
35.57246
35.71995
35.82848
35.90208
35.94179
35.94958
35.92596
35.86967
35.7788
35.65155
35.48188
35.24862
34.99285
35.23161
35.42709
35.57883
35.69137
35.76871
35.81036
35.81849
35.79377
35.73453
35.63972
35.50825
35.33728
35.10593
34.85744
35.0368
35.24777
35.40317
35.51845
35.59938
35.64316
35.65172
35.62567
35.56339
35.46536
35.33144
35.15596
34.95364
34.77564
34.95983
35.11807
35.23579
35.32008
35.36598
35.37528
35.34737
35.28238
35.18174
35.0458
34.86209
34.68331
34.67073
34.82976
34.9513
35.03906
35.08762
35.09748
35.06819
34.99998
34.89909
34.73849
34.57668
34.43411
34.54499
34.6696
34.75455
34.80084
34.80649
34.78526
34.71553
34.6047
34.47239
34.39394
34.46328
34.49343
34.49663
34.48148
34.43174
34.34955
36.85244
36.91644
36.9412
36.95578
36.96449
36.97004
36.97354
36.97533
36.97567
36.97463
36.97203
36.96756
36.96068
36.94943
36.93073
36.89519
36.75667
36.40636
36.59797
36.7057
36.77222
36.81355
36.84039
36.85743
36.86613
36.8678
36.86273
36.85003
36.82837
36.7953
36.7429
36.65887
36.52155
36.28859
36.09562
36.33406
36.48738
36.59024
36.65826
36.70373
36.73287
36.74786
36.75072
36.74199
36.72018
36.68328
36.62781
36.54403
36.41841
36.23027
35.98306
35.85911
36.11004
36.28869
36.41545
36.50402
36.56508
36.60464
36.62519
36.62913
36.61714
36.58736
36.53751
36.46382
36.35757
36.207
35.99577
35.74921
35.66707
35.91347
36.10575
36.24897
36.3535
36.42735
36.47574
36.50122
36.50613
36.4912
36.45454
36.39387
36.30555
36.18271
36.0165
35.7976
35.55481
35.48496
35.73268
35.93439
36.0905
36.20793
36.29212
36.34787
36.37764
36.38343
36.36587
36.32337
36.25381
36.15375
36.0175
35.83999
35.6143
35.37292
35.2887
35.5513
35.77119
35.93986
36.06755
36.15997
36.22172
36.25504
36.26159
36.24182
36.19452
36.11779
36.00849
35.86095
35.66954
35.40431
35.13447
35.39076
35.61996
35.79726
35.93202
36.0308
36.09745
36.13358
36.1407
36.11921
36.06803
35.98562
35.86949
35.7146
35.51241
35.25325
35.01444
35.24994
35.47902
35.66053
35.80069
35.90437
35.97494
36.01334
36.02092
35.99806
35.94373
35.85684
35.73545
35.57572
35.37081
35.1147
35.05408
35.29753
35.48677
35.63339
35.74198
35.81655
35.8573
35.86535
35.84107
35.78347
35.69212
35.56518
35.39865
35.18557
34.93627
34.78713
35.00035
35.20089
35.35555
35.46965
35.54874
35.59213
35.60076
35.57481
35.51355
35.41727
35.28384
35.1066
34.88342
34.67811
34.72112
34.92343
35.07506
35.19387
35.27689
35.3219
35.33056
35.30414
35.23994
35.13967
35.00289
34.82862
34.61788
34.45763
34.62786
34.78607
34.91291
34.99786
35.04108
35.04834
35.02485
34.9599
34.85411
34.71977
34.5553
34.34432
34.49526
34.6217
34.7063
34.74574
34.75148
34.7315
34.66283
34.54771
34.43825
34.32199
34.40313
34.42626
34.42569
34.41701
34.37087
34.28163
36.80863
36.917
36.94283
36.95791
36.968
36.9747
36.97918
36.98205
36.98354
36.98383
36.98295
36.9808
36.97717
36.97169
36.96346
36.95115
36.93222
36.89045
36.34394
36.60166
36.71243
36.78269
36.83069
36.86318
36.88512
36.8992
36.90659
36.90802
36.90368
36.89305
36.87524
36.84853
36.80899
36.75097
36.66485
36.51003
36.03957
36.33076
36.49646
36.60872
36.68779
36.74295
36.78087
36.80541
36.81834
36.82084
36.81324
36.79468
36.76375
36.71791
36.65174
36.55756
36.42269
36.21221
35.8088
36.09648
36.29812
36.44084
36.54423
36.61846
36.67046
36.70441
36.7224
36.7259
36.7153
36.68954
36.64691
36.58451
36.4967
36.3753
36.20668
35.9592
35.59997
35.88745
36.11403
36.27949
36.40229
36.49253
36.5567
36.59895
36.62151
36.62592
36.61258
36.58041
36.52756
36.45103
36.34546
36.20298
36.01033
35.72953
35.41633
35.69498
35.94073
36.12436
36.26323
36.36693
36.44147
36.49091
36.5175
36.52272
36.50696
36.46916
36.40754
36.31907
36.19866
36.03901
35.82759
35.54746
35.27712
35.5339
35.77857
35.97603
36.12804
36.24273
36.32588
36.38143
36.41148
36.4174
36.39954
36.35695
36.28795
36.18965
36.05714
35.88359
35.66133
35.3892
35.12854
35.38469
35.63023
35.8357
35.99715
36.12033
36.21049
36.27113
36.30409
36.31061
36.29098
36.24436
36.16928
36.06317
35.92163
35.73875
35.51139
35.24527
35.23097
35.48738
35.70071
35.86948
35.99954
36.09541
36.16028
36.19567
36.20268
36.18158
36.13161
36.05152
35.93904
35.79035
35.60013
35.36073
35.08292
35.05478
35.30596
35.52715
35.7049
35.84287
35.94492
36.01433
36.05234
36.05987
36.0372
35.98361
35.89814
35.77861
35.62141
35.42231
35.17908
34.92697
34.7623
35.00968
35.23905
35.42913
35.57691
35.68644
35.76141
35.80255
35.8107
35.78616
35.72816
35.63618
35.50813
35.33948
35.12909
34.87756
34.73258
34.96406
35.15521
35.30673
35.42144
35.5006
35.54366
35.55203
35.52662
35.46548
35.36866
35.23596
35.06379
34.8561
34.60494
34.47266
34.66254
34.86781
35.02824
35.14709
35.22907
35.27249
35.28057
35.2556
35.19265
35.0919
34.95486
34.77174
34.57047
34.37915
34.56075
34.741
34.86022
34.94388
34.98711
34.99455
34.97073
34.90537
34.80241
34.66111
34.48208
34.28587
34.4433
34.56267
34.64739
34.68726
34.69168
34.67339
34.60343
34.49092
34.38143
34.26603
34.34188
34.36914
34.37127
34.36112
34.29754
34.22162
36.7567
36.90327
36.94168
36.9587
36.96965
36.97739
36.98284
36.98661
36.98905
36.99035
36.9906
36.98983
36.98798
36.9849
36.98036
36.97385
36.96467
36.95135
36.92756
36.85856
36.29313
36.55364
36.70613
36.78579
36.83869
36.87638
36.90314
36.92173
36.93382
36.94026
36.94151
36.93771
36.92853
36.91332
36.89093
36.85912
36.81456
36.75078
36.64503
36.42939
36.00072
36.27094
36.48243
36.61206
36.70141
36.76592
36.81234
36.8449
36.86618
36.87754
36.87976
36.87304
36.85685
36.83015
36.79109
36.73626
36.66047
36.55401
36.39112
36.13029
35.77561
36.03798
36.27564
36.44311
36.56253
36.65009
36.714
36.75931
36.7891
36.80505
36.80818
36.79873
36.77602
36.73875
36.68465
36.60968
36.50755
36.36694
36.16553
35.90069
35.83433
36.08758
36.28102
36.42444
36.53153
36.61077
36.66747
36.70497
36.72515
36.72911
36.71714
36.68848
36.64169
36.57425
36.4819
36.35799
36.19166
35.96747
35.67888
35.65246
35.91651
36.12646
36.28857
36.41205
36.50454
36.57126
36.61563
36.6396
36.64433
36.63007
36.5961
36.54087
36.4618
36.3546
36.21293
36.02803
35.79201
35.50005
35.45442
35.75793
35.97969
36.15606
36.29296
36.39663
36.47199
36.52236
36.54969
36.55509
36.53882
36.50016
36.43761
36.34861
36.22904
36.07322
35.87492
35.62535
35.33118
35.30887
35.60702
35.83961
36.02721
36.17486
36.2878
36.37049
36.42605
36.45629
36.46228
36.44425
36.40152
36.33271
36.23537
36.10571
35.93874
35.7294
35.46781
35.17811
35.1681
35.46071
35.70321
35.9008
36.0575
36.17827
36.2672
36.3272
36.35996
36.36646
36.34691
36.30069
36.22651
36.12211
35.98395
35.80748
35.58752
35.31746
35.04789
34.99312
35.28104
35.52941
35.73733
35.90416
36.03374
36.12959
36.19455
36.23011
36.23716
36.21594
36.16582
36.08568
35.97338
35.82566
35.63878
35.40945
35.11899
34.72587
34.96163
35.24242
35.4627
35.642
35.78263
35.8873
35.95863
35.99776
36.00552
35.98217
35.92704
35.83928
35.71703
35.55731
35.358
35.1154
34.85402
34.69546
34.96494
35.19022
35.37537
35.52334
35.63447
35.71058
35.75218
35.76037
35.73565
35.67685
35.58337
35.45416
35.28721
35.0839
34.80891
34.56866
34.43395
34.6721
34.9012
35.09525
35.25258
35.36909
35.44881
35.49206
35.50043
35.47497
35.41347
35.31547
35.17936
35.00222
34.79228
34.56046
34.38608
34.5936
34.80205
34.96933
35.08946
35.17194
35.21665
35.22507
35.19914
35.13502
35.03377
34.89182
34.70377
34.50381
34.3111
34.49745
34.67123
34.79558
34.87962
34.92629
34.93421
34.90843
34.84093
34.73633
34.59396
34.41746
34.22051
34.36654
34.48813
34.56442
34.62278
34.63027
34.6028
34.52984
34.41789
34.2914
34.19068
34.25488
34.29621
34.29961
34.27354
34.22796
36.74316
36.88961
36.93573
36.957
36.96975
36.97854
36.98493
36.98956
36.99284
36.99498
36.99613
36.99636
36.99568
36.99404
36.99135
36.98744
36.98198
36.97451
36.96405
36.94794
36.91871
36.82625
36.28838
36.50586
36.67936
36.77717
36.83885
36.88197
36.91345
36.93638
36.95259
36.96325
36.96896
36.97009
36.96669
36.95857
36.94524
36.92585
36.89893
36.86216
36.81108
36.73452
36.60784
36.37168
35.98996
36.17747
36.44036
36.59622
36.70082
36.77546
36.8304
36.87067
36.89931
36.91817
36.92831
36.93031
36.92428
36.90988
36.88631
36.85216
36.80502
36.74106
36.65328
36.52658
36.33299
36.06832
35.75845
35.95056
36.2249
36.42109
36.56084
36.66304
36.73912
36.79536
36.83558
36.86218
36.87651
36.87934
36.87082
36.85048
36.81729
36.76944
36.70388
36.61576
36.49668
36.33145
36.09747
35.82564
35.74671
36.03343
36.25587
36.42222
36.54749
36.64214
36.71276
36.7636
36.79735
36.81559
36.81919
36.80834
36.78249
36.74045
36.68015
36.59817
36.48924
36.34504
36.1528
35.89391
35.60233
35.57628
35.86133
36.10054
36.28661
36.43072
36.54136
36.62472
36.68511
36.72536
36.74719
36.7515
36.73851
36.70763
36.65758
36.58615
36.4898
36.36333
36.19948
35.98836
35.71982
35.43903
35.42099
35.69683
35.95224
36.15439
36.31392
36.43815
36.5326
36.60145
36.64754
36.67259
36.67755
36.66262
36.62722
36.57003
36.48881
36.38008
36.23898
36.05925
35.8317
35.5548
35.29478
35.24652
35.54088
35.80977
36.0252
36.19758
36.3333
36.43733
36.5136
36.56485
36.59278
36.59832
36.58166
36.54223
36.47874
36.38901
36.2697
36.11634
35.92343
35.68246
35.366
35.10218
35.39481
35.67232
35.89824
36.08152
36.22708
36.33942
36.42217
36.47797
36.50845
36.5145
36.49631
36.45332
36.38431
36.28716
36.15873
35.99492
35.79099
35.54028
35.2282
34.95746
35.2222
35.49869
35.73468
35.92966
36.08614
36.20783
36.29794
36.35894
36.39233
36.39896
36.37902
36.33197
36.25666
36.15113
36.01248
35.83724
35.62185
35.36357
35.07992
34.93004
35.20897
35.46022
35.66956
35.83958
35.97335
36.07319
36.14113
36.17842
36.18583
36.16356
36.11106
36.02738
35.91087
35.75926
35.57012
35.33966
35.07144
34.80455
34.6583
34.92266
35.18713
35.40488
35.58355
35.72633
35.83361
35.90691
35.94713
35.9551
35.93111
35.87444
35.78431
35.65948
35.4987
35.30159
35.05909
34.78305
34.63838
34.90582
35.12644
35.31345
35.46492
35.57836
35.65591
35.69844
35.70682
35.68152
35.62154
35.52624
35.39401
35.22411
35.02052
34.7798
34.50944
34.38413
34.60182
34.83371
35.02947
35.18839
35.30649
35.3875
35.43216
35.44091
35.41441
35.35147
35.25213
35.11419
34.93566
34.72404
34.50168
34.31438
34.52489
34.73448
34.89492
35.01692
35.10065
35.14794
35.15706
35.12916
35.06317
34.96033
34.82113
34.63664
34.43293
34.23759
34.42235
34.58102
34.70655
34.792
34.84373
34.85377
34.82328
34.75415
34.64965
34.51611
34.34429
34.25995
34.36427
34.46024
34.50609
34.52084
34.48941
34.40216
34.32015
34.20264
34.13751
34.19967
34.20127
34.18444
36.7407
36.87937
36.92454
36.95232
36.96787
36.97824
36.98569
36.9912
36.99528
36.99818
37.00011
37.00114
37.00135
37.00073
36.99926
36.99686
36.9934
36.98865
36.98225
36.97352
36.96098
36.94102
36.90236
36.8334
36.28947
36.48298
36.62994
36.75471
36.82956
36.88039
36.91716
36.94449
36.9647
36.97916
36.98871
36.99387
36.99489
36.99182
36.98451
36.97259
36.95539
36.93183
36.90016
36.85718
36.79611
36.70198
36.54984
36.38796
35.99587
36.18772
36.36695
36.55934
36.68462
36.77243
36.83683
36.88498
36.92073
36.94638
36.96337
36.97254
36.97436
36.9689
36.9559
36.93471
36.90424
36.86265
36.807
36.73212
36.62794
36.47477
36.26522
36.08701
35.76509
35.94866
36.1427
36.37481
36.53905
36.65866
36.748
36.81542
36.86575
36.90202
36.9261
36.93913
36.9417
36.93395
36.9155
36.88551
36.8425
36.78409
36.70649
36.60337
36.46371
36.26921
36.02639
35.85176
35.57535
35.71524
35.94574
36.204
36.39665
36.54221
36.65327
36.73807
36.80182
36.84797
36.8787
36.89536
36.89866
36.88874
36.86516
36.82694
36.77233
36.69858
36.60146
36.47443
36.30719
36.08473
35.81425
35.65443
35.42894
35.54812
35.77304
36.04487
36.25841
36.42493
36.55455
36.65473
36.73063
36.78583
36.82272
36.84276
36.84673
36.83478
36.80646
36.76065
36.69546
36.60796
36.49384
36.34688
36.15821
35.91743
35.64143
35.48088
35.39698
35.60906
35.89199
36.12359
36.30767
36.45312
36.56677
36.65351
36.71691
36.75941
36.78255
36.78713
36.77334
36.74066
36.68796
36.61326
36.51359
36.38475
36.22101
36.01425
35.75691
35.48447
35.32931
35.24932
35.45242
35.74605
35.99226
36.1908
36.34974
36.47511
36.57145
36.6422
36.68978
36.71573
36.72087
36.70539
36.66877
36.60985
36.52668
36.41632
36.27481
36.09696
35.87559
35.60343
35.30726
35.17647
35.0883
35.30638
35.6091
35.86443
36.07438
36.24476
36.38033
36.48514
36.56244
36.61458
36.64307
36.64873
36.63172
36.59155
36.52707
36.43636
36.31663
36.16421
35.97472
35.74271
35.46361
35.16632
34.95712
35.14196
35.43668
35.70045
35.92231
36.10526
36.25227
36.36676
36.45163
36.50908
36.54053
36.54678
36.52799
36.48368
36.41275
36.3134
36.18305
36.01851
35.81641
35.57398
35.287
35.02085
34.86146
35.15447
35.42469
35.66188
35.86076
36.0225
36.14988
36.24506
36.30983
36.34539
36.35247
36.33121
36.28116
36.20138
36.09036
35.94609
35.76618
35.54791
35.29321
34.99106
34.85121
35.14656
35.39669
35.60669
35.77894
35.91621
36.01945
36.08999
36.12878
36.13649
36.11331
36.05875
35.97201
35.85192
35.69729
35.50678
35.27604
35.0124
34.71302
34.57989
34.85161
35.1212
35.33888
35.51969
35.66527
35.77503
35.85022
35.89166
35.89989
35.87513
35.81689
35.72457
35.597
35.43365
35.23514
34.99459
34.71636
34.57053
34.8351
35.05667
35.24458
35.39665
35.51141
35.59041
35.63423
35.64294
35.61674
35.55532
35.45859
35.32537
35.15489
34.95016
34.71104
34.4394
34.30972
34.52819
34.76002
34.95341
35.10896
35.22742
35.30961
35.35598
35.36522
35.33741
35.27296
35.1727
35.03633
34.86111
34.65064
34.42681
34.22955
34.43988
34.63831
34.7988
34.9204
35.00563
35.05522
35.06518
35.03533
34.96746
34.86445
34.72415
34.54681
34.35153
34.30807
34.46984
34.58681
34.67639
34.73059
34.74098
34.70979
34.6358
34.52824
34.38217
34.19954
34.15081
34.24828
34.32578
34.39833
34.40471
34.35508
34.29355
34.21215
36.78789
36.88226
36.92017
36.94358
36.96379
36.97634
36.98516
36.99167
36.99657
37.00022
37.00285
37.0046
37.00554
37.00573
37.00516
37.00383
37.00165
36.99853
36.99429
36.98865
36.9811
36.97067
36.95515
36.93081
36.90511
36.84242
36.70933
36.30976
36.49008
36.61527
36.71422
36.80978
36.87104
36.91453
36.94679
36.97111
36.98928
37.00237
37.01106
37.01576
37.01669
37.01389
37.00723
36.99641
36.98089
36.95981
36.93181
36.89449
36.84327
36.76831
36.65851
36.56026
36.39747
36.00658
36.19624
36.35329
36.49593
36.65146
36.75627
36.83216
36.88902
36.93209
36.96436
36.98766
37.00315
37.01154
37.0132
37.0082
36.99633
36.97704
36.94944
36.91205
36.86257
36.79707
36.70839
36.58244
36.4135
36.2814
36.09349
35.76929
35.96133
36.12907
36.29622
36.49563
36.63675
36.74152
36.82107
36.88178
36.92747
36.96055
36.98259
36.99454
36.99691
36.98979
36.97289
36.94548
36.90633
36.85351
36.78398
36.69284
36.57171
36.40548
36.19735
36.05126
35.85518
35.56963
35.76593
35.93121
36.11482
36.34563
36.51573
36.64533
36.74525
36.82219
36.88041
36.92272
36.95098
36.96632
36.96936
36.96022
36.93853
36.90343
36.85345
36.78629
36.69852
36.5848
36.43666
36.23993
36.00445
35.85359
35.65961
35.42047
35.5917
35.75464
35.94934
36.20166
36.39477
36.54544
36.66333
36.75497
36.82472
36.87562
36.90969
36.92822
36.9319
36.92085
36.89467
36.85238
36.79237
36.71213
36.60802
36.47473
36.30431
36.08468
35.83241
35.67225
35.50475
35.41888
35.5966
35.79393
36.06225
36.27441
36.443
36.57663
36.68142
36.76167
36.82046
36.85992
36.88142
36.88568
36.87286
36.84251
36.7936
36.7244
36.63234
36.51376
36.36356
36.17443
35.93635
35.67499
35.51269
35.33781
35.26761
35.44485
35.64626
35.92771
36.15513
36.33876
36.48607
36.60255
36.69226
36.75824
36.80266
36.82689
36.8317
36.81724
36.78305
36.72807
36.65055
36.5479
36.41659
36.25191
36.04744
35.79473
35.52337
35.36312
35.18315
35.13314
35.29544
35.50689
35.7981
36.03707
36.23313
36.39226
36.51906
36.61726
36.68976
36.73869
36.76543
36.77074
36.75477
36.71707
36.65658
36.57155
36.45946
36.31701
36.14006
35.9234
35.66008
35.38015
35.19705
35.06357
34.97162
35.11701
35.3356
35.63263
35.88331
36.09291
36.26533
36.40394
36.51199
36.59213
36.64639
36.6761
36.68201
36.66426
36.6224
36.55541
36.46161
36.33867
36.18358
35.99298
35.76343
35.49026
35.20576
35.05137
34.86097
35.06193
35.35464
35.61985
35.84723
36.03714
36.19152
36.31305
36.40387
36.46567
36.49962
36.50637
36.48608
36.43833
36.3622
36.25626
36.11861
35.94682
35.73827
35.49207
35.20786
34.92858
34.79175
34.79341
35.06706
35.34998
35.59199
35.79501
35.96124
36.09329
36.19259
36.26045
36.2978
36.30524
36.2829
36.23039
36.14696
36.03146
35.88253
35.69835
35.47574
35.21509
34.90112
34.66551
34.76569
35.06945
35.32428
35.53721
35.71273
35.85325
35.9594
36.03219
36.07238
36.08039
36.05633
35.99991
35.91058
35.78735
35.62943
35.43579
35.20194
34.93287
34.62762
34.50658
34.77586
35.04277
35.26273
35.44558
35.59284
35.70443
35.78132
35.824
35.83252
35.80694
35.74718
35.65306
35.52373
35.3586
35.15776
34.91616
34.64126
34.48354
34.74107
34.96858
35.15795
35.31082
35.42695
35.50739
35.55251
35.56155
35.53443
35.47159
35.37342
35.23911
35.06775
34.86008
34.58892
34.35153
34.41716
34.64441
34.84358
35.00484
35.12549
35.20934
35.25713
35.26673
35.23796
35.17188
35.07007
34.92943
34.74861
34.51222
34.28355
34.31816
34.50835
34.67511
34.79938
34.8869
34.93807
34.94784
34.9178
34.84738
34.74266
34.59515
34.40443
34.20277
34.16447
34.32731
34.45661
34.54281
34.59725
34.60347
34.57632
34.49737
34.3827
34.25276
34.13121
34.20111
34.23931
34.22103
34.23154
34.15976
36.82548
36.88833
36.92089
36.94062
36.95658
36.97264
36.98327
36.99099
36.99681
37.00123
37.00456
37.00697
37.00857
37.00944
37.00961
37.00909
37.00786
37.00587
37.00302
36.99917
36.9941
36.98741
36.97842
36.96559
36.9475
36.93199
36.90645
36.86731
36.73099
36.34965
36.49647
36.61971
36.7023
36.77539
36.853
36.90523
36.94343
36.97231
36.99432
37.01088
37.02287
37.03085
37.03518
37.03603
37.03346
37.02734
37.01741
37.00322
36.98407
36.95885
36.92572
36.88133
36.81867
36.73328
36.66502
36.56442
36.40312
36.27153
36.01714
36.20546
36.36221
36.48053
36.59482
36.72537
36.81597
36.8831
36.93421
36.97332
37.00282
37.02421
37.03846
37.04619
37.04772
37.04312
37.03218
37.01446
36.98917
36.95509
36.91036
36.8519
36.7743
36.66686
36.52798
36.4257
36.28908
36.10665
35.76808
35.96608
36.14162
36.27983
36.42194
36.595
36.71922
36.81284
36.8848
36.94019
36.98211
37.01258
37.03292
37.04396
37.04614
37.03956
37.02395
36.99868
36.96269
36.91434
36.85115
36.76918
36.66175
36.51642
36.33775
36.21491
36.05896
35.85797
35.56484
35.76688
35.94886
36.0975
36.259
36.46515
36.6178
36.73498
36.82607
36.89666
36.95033
36.98944
37.01561
37.02983
37.03265
37.02417
37.00407
36.97159
36.92544
36.86367
36.78338
36.68013
36.54674
36.37052
36.16237
36.02674
35.86258
35.65609
35.39875
35.59783
35.77314
35.92976
36.10573
36.33717
36.51349
36.6513
36.75965
36.84424
36.90887
36.95612
36.9878
37.00504
37.00846
36.99818
36.97383
36.93454
36.87887
36.80465
36.70875
36.58655
36.43093
36.22994
36.00007
35.85414
35.68721
35.49325
35.28454
35.42054
35.61201
35.77538
35.96049
36.21131
36.40735
36.56307
36.68684
36.78419
36.85892
36.91376
36.95061
36.97069
36.97467
36.96269
36.93434
36.8887
36.8242
36.73856
36.62856
36.48965
36.31507
36.09412
35.84902
35.69649
35.52209
35.35406
35.27443
35.46377
35.62972
35.82168
36.0878
36.30007
36.47119
36.60863
36.7175
36.80148
36.86332
36.90497
36.9277
36.93221
36.91864
36.88658
36.83504
36.76242
36.66639
36.54378
36.39025
36.1997
35.96268
35.70562
35.54926
35.37359
35.18891
35.13406
35.31153
35.48861
35.68852
35.96649
36.19194
36.37624
36.52574
36.64494
36.73734
36.80561
36.85169
36.87688
36.88188
36.86684
36.83133
36.77436
36.69432
36.5889
36.45504
36.28879
36.0849
35.83524
35.56803
35.40346
35.20519
35.04755
34.97958
35.13171
35.31697
35.52108
35.80954
36.04895
36.24798
36.41129
36.54253
36.64483
36.72073
36.77212
36.80025
36.80585
36.78904
36.7494
36.68596
36.59713
36.48072
36.33388
36.1532
35.93469
35.67245
35.39777
35.2301
35.06198
34.88316
35.04465
35.24784
35.54182
35.79899
36.01778
36.19979
36.34756
36.46377
36.55057
36.60962
36.64205
36.6485
36.62912
36.58349
36.51074
36.40947
36.27779
36.11326
35.91313
35.67528
35.39925
35.12475
34.95575
34.79921
34.77972
34.9711
35.26501
35.53926
35.77388
35.97028
36.13085
36.25809
36.35371
36.41902
36.45498
36.46215
36.44063
36.39009
36.30978
36.19854
36.05488
35.87677
35.66146
35.40731
35.11604
34.84255
34.70282
34.70152
34.98101
35.26896
35.5151
35.72241
35.89304
36.02917
36.13196
36.20243
36.24135
36.24912
36.22581
36.17119
36.08469
35.96536
35.81216
35.62358
35.39685
35.13178
34.81364
34.56552
34.68412
34.98672
35.23949
35.45514
35.63391
35.77734
35.88603
35.96084
36.00231
36.0106
35.98573
35.92764
35.83599
35.71004
35.54901
35.35212
35.11723
34.85057
34.54506
34.40784
34.6862
34.94216
35.16565
35.3519
35.50195
35.61581
35.69439
35.7382
35.74697
35.72066
35.65947
35.56338
35.43151
35.26333
35.0587
34.81453
34.54825
34.38552
34.62214
34.85065
35.04447
35.20207
35.32095
35.4029
35.4489
35.4581
35.4305
35.36643
35.26635
35.12805
34.95207
34.7393
34.49311
34.24063
34.31418
34.52068
34.71258
34.8789
35.0021
35.08674
35.13457
35.14384
35.11557
35.04887
34.94593
34.80034
34.61864
34.40758
34.19891
34.17588
34.36438
34.53989
34.66145
34.74725
34.79509
34.80238
34.77696
34.70806
34.60595
34.45952
34.28697
34.19574
34.29816
34.38743
34.43327
34.4346
34.41678
34.33269
34.25095
34.11383
34.12002
34.12806
36.7879
36.88832
36.92117
36.94089
36.9542
36.96636
36.97981
36.9891
36.99601
37.00129
37.00535
37.00841
37.01063
37.01211
37.01291
37.01307
37.01259
37.01146
37.00962
37.00699
37.00346
36.99883
36.9928
36.98483
36.9738
36.9593
36.94816
36.93204
36.9075
36.85686
36.30981
36.49645
36.62024
36.70468
36.76493
36.82252
36.88822
36.9341
36.96836
36.99461
37.01479
37.03005
37.04113
37.0485
37.0525
37.05329
37.05091
37.04525
37.03608
37.02299
37.00538
36.98235
36.9524
36.91295
36.85873
36.78884
36.73719
36.66621
36.56451
36.41144
36.00665
36.20552
36.36507
36.48617
36.57944
36.67374
36.78639
36.86671
36.92724
36.97385
37.00979
37.03702
37.05681
37.07001
37.07717
37.07859
37.07433
37.0642
37.04779
37.02441
36.99302
36.95205
36.899
36.82958
36.73539
36.61809
36.53578
36.42964
36.29103
36.10093
35.76936
35.96616
36.14492
36.28822
36.40375
36.5259
36.67852
36.78999
36.87501
36.94096
36.99203
37.03084
37.05911
37.07799
37.08824
37.09027
37.08416
37.06967
37.04621
37.01285
36.96817
36.91006
36.83525
36.73823
36.60878
36.45322
36.34903
36.2205
36.06047
35.85743
35.56969
35.76694
35.95252
36.10807
36.23865
36.38194
36.56754
36.70637
36.81371
36.89767
36.96305
37.01291
37.04932
37.07368
37.08692
37.08955
37.08165
37.06294
37.0327
36.98978
36.93247
36.85827
36.76337
36.64162
36.48201
36.29614
36.17617
36.03375
35.8637
35.65781
35.4205
35.59786
35.77985
35.94165
36.08335
36.24292
36.45525
36.61766
36.74499
36.8455
36.92423
36.9845
37.02864
37.05824
37.07435
37.07754
37.06793
37.04518
37.00848
36.95651
36.88735
36.79824
36.6851
36.54156
36.35668
36.14699
36.01499
35.86329
35.69101
35.49847
35.42054
35.61737
35.7873
35.93735
36.10888
36.34259
36.52509
36.67014
36.78567
36.87672
36.94672
36.99813
37.03268
37.05151
37.05525
37.04401
37.01743
36.97463
36.91418
36.83402
36.73124
36.60172
36.43921
36.23337
36.00546
35.86473
35.70498
35.52407
35.346
35.27445
35.4717
35.64374
35.79879
35.97919
36.23003
36.4295
36.59012
36.71918
36.82151
36.90053
36.95873
36.99793
37.01932
37.02357
37.0108
36.98062
36.93211
36.86377
36.77346
36.65826
36.51415
36.33525
36.11214
35.87011
35.72338
35.55998
35.37786
35.18919
35.13408
35.32991
35.50551
35.66548
35.85315
36.11761
36.33137
36.5056
36.6468
36.7594
36.84671
36.91121
36.95475
36.97854
36.98326
36.96906
36.93552
36.88169
36.80605
36.70646
36.58004
36.42297
36.22999
35.99276
35.73954
35.58748
35.41974
35.2342
35.05366
34.97959
35.16778
35.33803
35.49884
35.69228
35.97022
36.19954
36.38927
36.54458
36.66929
36.76647
36.83855
36.88733
36.91403
36.91934
36.90339
36.86577
36.80553
36.72116
36.61056
36.47098
36.29901
36.09027
35.83822
35.57486
35.41961
35.25527
35.07184
34.89111
35.05663
35.22395
35.4236
35.71507
35.96433
36.17506
36.34986
36.49161
36.60296
36.68607
36.74257
36.77358
36.77975
36.76121
36.71757
36.64794
36.55095
36.42471
36.2668
36.07439
35.8447
35.57521
35.30244
35.14198
34.96437
34.80295
34.79366
34.94862
35.15258
35.45095
35.71626
35.94336
36.13335
36.28856
36.41135
36.50352
36.56643
36.60106
36.60796
36.58725
36.53857
36.46119
36.3539
36.21516
36.04289
35.83462
35.58839
35.30555
35.02885
34.86255
34.69655
34.6827
34.87906
35.17715
35.45509
35.69409
35.89569
36.06159
36.19368
36.29332
36.36158
36.39926
36.40678
36.38422
36.33133
36.24751
36.13178
35.98298
35.79953
35.57937
35.32122
35.02646
34.74786
34.59744
34.6142
34.89458
35.1791
35.42579
35.63638
35.81097
35.95081
36.05671
36.12949
36.16978
36.17783
36.15368
36.0972
36.00797
35.88521
35.7281
35.53571
35.30685
35.04243
34.72732
34.47388
34.59498
34.8812
35.13565
35.35389
35.53606
35.68279
35.79417
35.87085
35.91342
35.92194
35.8964
35.83681
35.7429
35.61388
35.44944
35.24937
35.01265
34.73635
34.45032
34.3038
34.54364
34.82274
35.04746
35.23612
35.38963
35.50603
35.58607
35.63063
35.63953
35.61282
35.55052
35.45252
35.31745
35.14611
34.93986
34.69453
34.42914
34.22743
34.47122
34.71715
34.9119
35.07245
35.19307
35.27578
35.32184
35.33091
35.3035
35.23897
35.13787
34.99687
34.8185
34.60765
34.37318
34.15523
34.36648
34.56949
34.73308
34.85553
34.94082
34.98798
34.99672