/*--------------------------------*- C++ -*----------------------------------*\
| =========                 |                                                 |
| \\      /  F ield         | OpenFOAM: The Open Source CFD Toolbox           |
|  \\    /   O peration     | Version:  5.x                                   |
|   \\  /    A nd           | Web:      www.OpenFOAM.org                      |
|    \\/     M anipulation  |                                                 |
\*---------------------------------------------------------------------------*/
FoamFile
{
    version     2.0;
    format      ascii;
    class       volScalarField;
    location    "35/tumor";
    object      T;
}
// * * * * * * * * * * * * * * * * * * * * * * * * * * * * * * * * * * * * * //

dimensions      [0 0 0 1 0 0 0];

internalField   nonuniform List<scalar> 
1659
(
38.95033
39.17429
38.97484
39.10572
39.42377
39.25717
39.29593
39.60543
39.39943
38.89098
39.33023
39.65247
39.42431
38.93238
39.24821
39.55807
39.33117
38.8158
39.02615
39.29811
39.11347
38.74129
39.00681
38.78767
39.04842
39.23526
39.52538
39.31731
38.95018
39.58609
39.93385
39.72789
39.03411
39.10518
39.89763
40.22463
40.02928
39.3588
39.29581
40.07219
40.39198
40.20039
39.49884
39.3302
40.12404
40.43276
40.23936
39.54795
39.24825
40.03498
40.34283
40.14468
39.4241
39.02625
39.80637
40.12286
39.92343
39.21782
38.74135
39.47194
39.77919
39.57837
38.87617
39.00185
39.30747
39.10383
38.72541
38.58963
39.04847
39.32545
39.14537
39.5254
39.84369
39.64174
39.00021
39.17813
39.93363
40.25498
40.06236
39.35712
39.42382
40.22454
40.54452
40.35599
39.666
39.60525
40.39197
40.70906
40.51984
39.82874
38.90981
39.65232
40.4328
40.74733
40.55561
39.86074
38.93293
39.55795
40.34288
40.65859
40.46425
39.76187
38.81262
39.298
40.12285
40.44344
40.24667
39.53818
39.00671
39.77899
40.10232
39.89933
39.17146
39.30735
39.63444
39.42903
38.74759
38.72536
39.04468
38.87042
39.14535
38.97574
39.31727
39.64168
39.43425
38.87839
38.97497
39.7278
40.06228
39.8758
39.18528
39.25716
40.02918
40.35589
40.16836
39.45274
39.39936
40.20028
40.51976
40.33055
39.63725
39.42422
40.23924
40.55554
40.36348
39.668
39.33107
40.14456
40.46418
40.26904
39.56209
39.11336
39.92329
40.24662
40.04676
39.29925
38.78757
39.57819
39.89924
39.69978
38.99862
39.10369
39.42893
39.2257
38.56761
38.58955
38.87037
38.59681
39.00017
38.8784
39.03406
39.35704
39.18528
39.35872
39.66585
39.45259
38.89092
38.89092
39.49875
39.82859
39.6372
38.95212
38.93232
39.54784
39.86056
39.66799
38.95839
38.81573
39.42398
39.76171
39.56202
38.86245
39.2177
39.53801
39.29902
38.69291
38.87605
39.17134
38.99864
38.74752
38.56769
38.90973
38.93283
38.81253
39.00533
39.02686
39.01312
39.15259
39.13354
38.96303
39.05517
39.07255
39.19755
39.17224
39.21423
39.18741
39.01113
39.02178
39.07118
39.06017
39.21392
39.18556
39.20222
39.17225
39.0166
39.00485
39.00023
38.92445
39.13302
39.09762
39.05413
39.0174
38.92808
38.85285
38.83504
38.92533
38.87644
38.96037
39.00472
38.96568
38.97856
38.94355
39.13074
39.07244
39.32607
39.02031
38.97056
39.18838
39.14344
39.38409
39.34878
38.97654
39.1716
38.95642
38.96165
39.1036
39.12302
39.03538
39.24358
39.27801
39.48939
39.42571
39.65775
39.12848
39.30327
39.28124
39.58404
39.52076
39.75037
39.7066
39.13894
38.93618
39.38079
39.08365
39.53323
39.2762
38.93019
38.96764
39.18608
38.9675
39.32099
39.33935
39.21907
39.42192
39.5414
39.78459
39.62159
39.88174
39.40666
39.51536
39.49325
39.88254
39.8483
39.9818
39.95113
39.01646
39.34069
39.07503
39.68536
39.41159
39.79095
39.5023
39.03989
39.09942
39.03002
39.0544
39.02992
39.40359
39.0543
39.43934
39.47625
39.32731
39.50254
39.72408
39.95143
39.77361
39.98932
39.58094
39.64716
39.62132
40.05258
40.02216
40.09084
40.06009
39.1783
39.42462
39.22262
39.85815
39.5476
39.896
39.61587
38.92906
39.1805
39.24349
38.8521
39.04781
39.03889
39.04772
39.43477
39.03881
39.41273
39.50414
39.31462
39.48318
39.78278
39.99455
39.75644
39.96704
39.62501
39.62416
39.59362
40.09546
40.06374
40.06633
40.03276
39.22673
39.40154
39.20188
39.89934
39.62735
39.86649
39.5868
38.91094
39.25963
38.87461
39.23335
38.85489
38.97448
38.9026
38.97443
39.35838
38.90256
39.26854
39.42104
39.15559
39.33281
39.69362
39.90591
39.59011
39.80999
39.52058
39.45111
39.39998
40.0026
39.96676
39.90403
39.86727
39.10768
39.23841
38.95752
39.79783
39.48682
39.69892
39.40281
39.13772
38.77651
38.99101
38.80532
38.8053
39.13825
38.956
39.2272
38.87904
39.09201
39.43484
39.6795
39.2972
39.51887
39.27033
39.15477
39.12746
39.77221
39.73785
39.61193
39.57554
38.85721
38.96503
38.73969
39.56105
39.27787
39.37334
39.12586
38.8805
38.769
38.81992
38.66633
38.92574
38.75324
39.13486
39.31266
38.90075
39.11876
38.9731
38.81676
38.79447
39.41485
39.38379
39.17057
39.14964
38.65665
39.20723
38.92044
39.00827
38.72841
38.64267
38.68346
38.8745
38.66351
38.94198
38.92337
38.71095
38.70165
38.77518
38.5883
38.58048
39.03456
39.01464
38.96055
39.00938
39.00181
39.22528
39.00945
39.20188
39.22541
39.40767
39.00874
39.28629
39.2339
39.24424
39.18993
39.50336
39.42926
39.06113
38.88444
39.02546
39.28862
39.03918
38.94371
39.07259
39.13098
38.98047
39.32616
39.01961
39.5164
39.26156
39.54916
39.26524
39.76801
39.46862
38.91484
38.92411
39.1171
39.27812
39.03427
39.42611
39.12445
39.48867
39.23556
39.65665
39.22897
38.8686
39.28814
38.91138
39.42813
39.04505
39.00499
39.54201
39.21884
39.62223
39.3371
39.78373
39.42101
39.88122
38.9547
39.43576
38.99756
39.57359
39.13017
39.67191
39.18409
39.05498
39.07244
39.72453
39.32724
39.77399
39.47581
39.95112
39.5023
39.98911
39.03632
39.51883
39.0883
39.73706
39.22991
39.77037
39.26601
39.07112
39.06015
39.78319
39.31463
39.75687
39.504
39.99442
39.4831
39.96696
39.10354
39.51719
39.07881
39.77348
39.26816
39.74057
39.24217
39.00023
38.92446
39.69408
39.15567
39.59064
39.42099
39.90586
39.33278
39.80997
38.99914
39.33747
38.87451
39.67081
39.16014
39.57149
39.06266
38.83504
39.43543
38.87913
39.29775
39.22716
39.6794
39.09197
39.51875
38.76731
39.08231
38.66008
39.44004
38.96011
39.26587
38.83555
39.13516
38.90086
38.92573
39.3126
38.75325
39.11884
38.67026
39.09343
38.64952
38.85996
38.68351
38.87456
38.66355
39.19876
38.69092
38.9387
39.19896
39.42946
38.93878
39.13168
38.81258
38.85092
38.576
39.33455
39.03112
39.04793
38.75767
38.64258
38.65907
38.6591
38.87516
38.63499
38.72334
38.93034
38.91795
38.68109
38.66346
38.78681
38.54662
38.58412
39.03457
39.01464
39.15669
39.06436
39.06435
39.00808
39.00499
38.96585
39.24424
39.28635
39.50334
39.00876
39.18991
39.23392
39.42922
39.26575
39.59729
39.54543
39.26573
39.21966
39.5454
39.50689
38.95955
39.37892
39.11917
39.10468
38.94064
39.33529
39.10131
39.18872
39.02341
39.38441
39.14362
38.97117
39.34892
39.18592
38.9768
39.16324
39.58353
39.30157
39.74984
39.12901
39.52079
39.28129
39.70649
38.96395
39.53032
39.09495
39.33024
38.91562
39.47244
39.05327
39.02692
39.15254
39.01319
39.13354
39.88216
39.5152
39.9815
39.40664
39.84816
39.49317
39.95098
39.18113
39.76437
39.24735
39.62443
39.16543
39.72934
39.22814
39.19747
39.21414
39.1722
39.18735
40.05235
39.64698
40.09065
39.58083
40.022
39.62119
40.05993
39.29747
39.86073
39.32454
39.79645
39.27616
39.82881
39.30368
38.94414
38.89646
38.93233
39.21384
39.20216
39.18549
39.17218
40.09528
39.62402
40.06617
39.62489
40.06358
39.59349
40.03261
39.32042
39.82789
39.28838
39.82817
39.29925
39.79485
39.26975
38.90577
38.91318
38.8884
39.13297
39.05408
39.09754
39.01732
40.00246
39.451
39.90391
39.52046
39.96661
39.39986
39.86713
39.2205
39.66543
39.13509
39.72827
39.19564
39.62982
39.11097
38.80726
38.92527
38.87636
39.77208
39.15466
39.61176
39.27021
39.73769
39.12734
39.57537
39.0263
39.37653
38.90705
39.50106
39.00103
39.34339
38.88578
39.41467
38.81668
39.17043
38.97299
39.38361
38.79436
39.14948
38.76775
38.98673
38.61065
39.14256
38.74884
38.95652
38.59055
38.94189
38.71089
38.92324
38.70156
39.1054
39.15628
38.87749
39.38031
39.07473
39.07243
38.82437
38.54105
38.72209
38.52029
38.93029
38.68105
38.72326
38.91786
38.66339
39.01629
38.77005
38.74757
39.01624
38.95379
38.74754
38.70951
38.63391
38.62263
38.80075
38.56299
38.56837
39.02544
39.06112
39.28857
38.88443
39.03915
39.10469
39.37888
39.3353
38.95953
38.94064
39.11914
39.10131
39.2129
38.95877
38.95877
38.97661
39.17163
38.95643
39.54909
39.51633
39.7679
39.01959
39.26519
39.2615
39.46854
39.18452
39.67616
39.39452
39.18454
38.91284
39.39454
39.14556
39.03081
38.82262
39.38078
39.13898
39.53319
39.08363
38.93619
39.27616
39.34004
38.90344
38.93115
39.08163
38.96303
39.68528
39.34065
39.79085
39.01644
39.41153
39.07499
39.50223
39.03959
39.56879
39.10812
39.21622
38.84248
39.29133
38.8897
39.0111
39.02173
39.85803
39.42453
39.89587
39.17823
39.54751
39.22255
39.61576
39.1568
39.66938
39.18581
39.33307
38.91164
39.35148
38.92137
39.01654
39.00478
39.89921
39.40145
39.86636
39.22665
39.62724
39.2018
39.58669
39.1839
39.63322
39.15711
39.34624
38.89607
39.32105
38.87968
38.92801
38.85278
39.7977
39.2383
39.69878
39.1076
39.4867
38.95743
39.4027
39.06917
39.45378
38.97384
39.25023
38.81221
39.16211
38.73257
39.56091
38.96492
39.37319
38.85712
39.27776
38.7396
39.12574
38.85244
39.15703
38.70525
39.05338
38.64619
38.88628
39.20708
38.65656
39.00814
38.92033
38.72831
38.59256
38.77483
38.69882
38.53785
38.77507
38.58039
38.58821
39.3344
38.85081
39.04782
38.81247
39.031
38.57591
38.75758
39.38029
39.15621
39.07241
39.10532
39.07476
38.87742
38.82438
38.93871
38.92186
38.64829
38.93899
38.62842
38.6484
38.4769
38.78673
38.58406
38.54654
38.80074
38.62259
38.56836
38.63386
38.563
38.92407
38.9148
39.11704
38.97679
39.18585
39.16321
39.03082
38.82264
38.93014
39.28806
39.2289
39.42804
38.91132
38.86855
39.04498
39.33017
39.53021
39.47233
38.96389
38.91558
39.09488
39.05321
38.9312
39.34
39.08174
38.90346
38.81432
39.03984
39.09936
39.57347
39.43568
39.67179
38.95464
39.13009
38.99749
39.18399
39.62425
39.76422
39.72919
39.18103
39.16534
39.24723
39.22804
39.21658
39.5686
39.29223
39.0396
38.84259
39.10814
38.88994
38.93272
39.18045
38.92901
39.24343
38.85203
39.73693
39.51873
39.77023
39.03624
39.2298
39.0882
39.26589
39.79631
39.86056
39.82865
39.29734
39.27605
39.32441
39.30356
39.33459
39.66936
39.35321
39.15686
38.91202
39.18588
38.9218
38.96315
39.25954
38.91087
39.23326
38.87454
38.85482
39.77333
39.51707
39.74042
39.10344
39.26804
39.07871
39.24205
39.82799
39.82772
39.79466
39.32028
39.29912
39.28823
39.26962
39.34803
39.63319
39.3228
39.18398
38.89652
39.15718
38.88013
38.94069
39.13762
38.99092
38.77643
39.67066
39.33735
39.57134
38.99904
39.16001
38.87441
39.06255
39.72809
39.66527
39.62963
39.22036
39.19551
39.13496
39.11085
39.25183
39.45352
39.16316
39.0692
38.8126
38.97383
38.73283
38.76751
38.8804
38.7689
39.43989
39.08219
39.26574
38.76722
38.96
38.65999
38.83544
39.50087
39.37638
39.34327
39.02618
39.00094
38.90695
38.88572
39.05387
39.15697
38.88636
38.85243
38.64633
38.70527
38.59743
38.64258
39.0933
38.67016
38.85985
38.64943
39.1425
38.98663
38.95649
38.76766
38.74879
38.61058
38.59052
38.69871
38.77495
38.53782
38.59258
38.64249
38.72208
38.54099
38.52029
38.89641
38.94405
38.93228
38.91314
38.90567
38.88835
38.80721
39.43536
39.42342
39.65638
39.43558
39.659
39.65678
39.87754
39.45959
39.74327
39.69641
39.75013
39.69996
39.96888
39.92769
39.8398
39.76695
39.99983
39.84001
40.06474
39.9999
40.22367
39.89139
40.09481
40.05643
40.15876
40.12174
40.31857
40.28425
39.43684
39.89176
39.58293
39.96192
39.6752
40.12462
39.83851
40.12823
39.99545
40.22612
40.12856
40.35176
40.22656
40.44941
40.19038
40.32357
40.29125
40.44752
40.41515
40.54559
40.514
39.74261
40.13231
39.84786
40.257
39.9745
40.3564
40.0746
40.29554
40.11587
40.3336
40.29594
40.51696
40.33394
40.55327
40.35993
40.42855
40.39621
40.6126
40.58103
40.64815
40.61621
39.9148
40.23629
39.95135
40.42301
40.14078
40.4576
40.17491
40.33897
40.09715
40.31133
40.33926
40.55763
40.31161
40.52976
40.39971
40.40418
40.37019
40.65183
40.61939
40.62354
40.59044
39.95627
40.20858
39.92357
40.46003
40.17703
40.43013
40.14564
40.25037
39.93718
40.15607
40.25068
40.46953
40.15645
40.37694
40.30789
40.24876
40.21362
40.5632
40.52954
40.471
40.4371
39.85488
40.05049
39.76293
40.36815
40.08125
40.27507
39.98692
40.02968
39.65582
39.8741
40.03008
40.25261
39.87434
40.09744
40.08831
39.96694
39.93237
40.34723
40.31337
40.19239
40.15827
39.63844
39.76404
39.47623
40.15003
39.86018
39.99185
39.69653
39.68604
39.23704
39.46502
39.68637
39.90958
39.46548
39.68779
39.74621
39.55787
39.52772
40.00555
39.97149
39.78575
39.75292
39.26163
39.36343
39.07105
39.80158
39.49535
39.58073
39.24477
39.28125
39.01831
39.00392
39.53363
39.50478
39.24589
39.2234
39.75006
39.74314
39.96872
39.45957
39.69988
39.69633
39.92758
39.80188
40.06399
40.02762
39.80183
39.76648
40.02755
39.99485
39.35005
39.86778
39.58048
39.60249
39.32128
39.83515
39.5556
40.15868
40.09461
40.31859
39.89128
40.12167
40.05632
40.28422
40.22139
40.41523
40.38328
40.22142
40.1904
40.38338
40.35292
39.7763
40.22521
39.94073
40.03249
39.74967
40.19534
39.90923
40.44751
40.32351
40.54561
40.19028
40.41511
40.29116
40.51398
40.51346
40.64241
40.61169
40.51354
40.48328
40.61175
40.58142
40.07317
40.4541
40.17131
40.32573
40.04046
40.42357
40.13896
40.61265
40.42857
40.64821
40.35984
40.58098
40.39612
40.61615
40.67802
40.74399
40.71263
40.67802
40.64741
40.7126
40.68148
40.23622
40.55359
40.26907
40.48897
40.20408
40.52222
40.23654
40.6519
40.40423
40.62361
40.39962
40.61932
40.37011
40.59036
40.71542
40.71874
40.68643
40.71538
40.68377
40.68637
40.65428
40.27007
40.52569
40.23901
40.52365
40.23698
40.49336
40.20554
40.56326
40.24878
40.47106
40.3078
40.52947
40.21352
40.43701
40.62572
40.56664
40.53355
40.62566
40.59316
40.53349
40.50057
40.1761
40.37137
40.08222
40.43138
40.14224
40.33783
40.04741
40.34729
39.96683
40.19241
40.08818
40.31327
39.93219
40.15814
40.40989
40.28867
40.25463
40.4098
40.37637
40.25455
40.22027
39.95636
40.08939
39.79621
40.21255
39.92105
40.05516
39.76253
40.00544
39.55763
39.78556
39.74602
39.97134
39.5275
39.75273
40.06756
39.88399
39.84884
40.06748
40.03154
39.84873
39.80963
39.60114
39.67822
39.37449
39.86462
39.57012
39.64015
39.34433
39.53351
39.01824
39.24581
39.28108
39.50463
39.0038
39.22329
39.59981
39.35485
39.32263
39.59972
39.55483
39.32257
39.26836
39.60254
39.86768
39.83525
39.35001
39.32129
39.58041
39.55561
39.96182
39.89166
40.12452
39.43678
39.67511
39.58284
39.83839
40.03243
40.22512
40.19525
39.7762
39.74963
39.94062
39.90916
39.59413
40.0387
39.75395
39.59421
39.31572
39.75415
39.45118
40.25688
40.13219
40.35626
39.7425
39.97437
39.84776
40.07448
40.32567
40.45399
40.42356
40.07302
40.04037
40.17116
40.13889
39.88256
40.26581
39.98053
39.88287
39.59945
39.98099
39.69636
40.42289
40.23618
40.45748
39.91469
40.14065
39.95124
40.17477
40.48903
40.55352
40.52234
40.23608
40.20405
40.26894
40.23657
40.04469
40.36292
40.07593
40.04534
39.75485
40.07673
39.78148
40.45991
40.20846
40.43001
39.95616
40.17689
39.92345
40.14549
40.52379
40.52562
40.49351
40.26995
40.23705
40.23888
40.20558
40.07525
40.33219
40.04274
40.07611
39.77862
40.04353
39.74642
40.36803
40.05036
40.27495
39.85475
40.0811
39.76279
39.98676
40.43152
40.37131
40.33796
40.17596
40.14222
40.08208
40.04738
39.97775
40.1738
39.88008
39.97836
39.68264
39.88038
39.58669
40.1499
39.76387
39.99171
39.6383
39.86003
39.47609
39.69638
40.21281
40.08934
40.05541
39.95624
39.92105
39.79608
39.76249
39.74984
39.88913
39.59149
39.74995
39.45413
39.59173
39.26915
39.80143
39.36326
39.58056
39.2615
39.49521
39.07092
39.24464
39.86472
39.67808
39.64014
39.60101
39.57016
39.37437
39.34434
39.40256
39.47636
39.16132
39.40334
39.11081
39.16193
38.90611
)
;

boundaryField
{
    tumor_to_gland
    {
        type            compressible::turbulentTemperatureCoupledBaffleMixed;
        refValue        nonuniform List<scalar> 
2347
(
38.67664
38.67664
38.67664
38.67664
38.83768
38.83768
38.83768
38.87794
38.87794
38.87794
38.87794
38.75302
38.75302
38.75302
38.70564
38.70564
38.62081
38.62081
38.69573
38.69573
38.60278
38.60278
38.55994
38.73744
38.73744
38.73744
38.73744
38.46011
38.54313
38.59834
38.59834
38.47655
38.78552
38.78552
38.82458
38.82458
38.82458
38.82458
38.82458
38.82458
38.73714
38.73714
38.73714
38.8396
38.8396
38.8396
38.8026
38.8026
38.73629
38.73629
38.73629
38.61119
38.61119
38.8271
38.8271
38.8271
38.8271
38.68131
38.68131
38.68131
38.68131
38.6438
38.6438
38.6438
38.6438
38.66087
38.66087
38.56122
38.56122
38.56122
38.44568
38.44568
38.44568
38.70625
38.74442
38.74442
38.82819
38.82819
38.83945
38.83945
38.83945
38.7562
38.7562
38.7562
38.70555
38.70555
38.52647
38.52647
38.69571
38.69571
38.50477
38.50477
38.55994
38.44571
38.44571
38.44571
38.35251
38.46793
38.46793
38.46793
38.70632
38.90671
38.90671
38.90671
38.7861
38.7861
38.66004
38.83735
38.83735
38.83735
38.63942
38.63942
38.75965
38.75965
38.75965
38.75965
38.72396
38.72396
38.72396
38.72396
38.56196
38.54312
38.31822
38.50855
38.50855
38.50855
38.44048
38.44048
38.2432
38.30667
38.30667
38.74449
38.74449
38.69106
38.69106
38.69106
38.69106
38.82521
38.82521
38.82521
38.82521
38.82521
38.82521
38.73196
38.73196
38.73196
38.73196
38.67739
38.67739
38.67739
38.67739
38.87807
38.87807
38.87807
38.87807
38.68564
38.68564
38.68564
38.68564
38.62943
38.62943
38.62943
38.62943
38.59828
38.59828
38.36074
38.36074
38.30664
38.30664
38.38281
38.38281
38.38281
38.38281
38.23448
38.23448
38.9067
38.9067
38.9067
38.86807
38.86807
38.86807
38.73728
38.73728
38.73728
38.75307
38.75307
38.75307
38.56124
38.56124
38.65107
38.65107
38.65107
38.65107
38.6679
38.6679
38.6679
38.6679
38.73737
38.73737
38.73737
38.73737
38.47424
38.47424
38.47648
38.42318
38.42318
38.42318
38.42318
38.46785
38.46785
38.46785
38.4184
38.4184
38.4184
38.23446
38.23446
38.69106
38.69106
38.69106
38.69106
38.82818
38.82818
38.74685
38.80261
38.80261
38.64929
38.64929
38.64929
38.62078
38.62078
38.60273
38.60273
38.37863
38.37863
38.46006
38.51729
38.51729
38.51729
38.51729
38.44042
38.44042
38.41846
38.41846
38.41846
38.66001
38.73193
38.73193
38.73193
38.73193
38.75617
38.75617
38.75617
38.64932
38.64932
38.64932
38.61116
38.61116
38.68127
38.68127
38.68127
38.68127
38.58199
38.58199
38.64374
38.64374
38.64374
38.64374
38.56524
38.56524
38.56115
38.56115
38.56115
38.39365
38.51736
38.51736
38.51736
38.51736
38.50848
38.50848
38.50848
38.42322
38.42322
38.42322
38.42322
38.63936
38.63936
38.6856
38.6856
38.6856
38.6856
38.56126
38.56126
38.52642
38.52642
38.75957
38.75957
38.75957
38.75957
38.65111
38.65111
38.65111
38.65111
38.50471
38.50471
38.72388
38.72388
38.72388
38.72388
38.66793
38.66793
38.66793
38.66793
38.37877
38.37877
38.56188
38.62936
38.62936
38.62936
38.62936
38.47427
38.47427
38.31816
38.36069
38.36069
38.58943
38.58943
38.64877
38.64877
38.64877
38.64877
38.66096
38.66096
38.66096
38.66096
38.62174
38.62174
38.62174
38.63312
38.63312
38.68944
38.68944
38.68944
38.68944
38.65659
38.65659
38.70725
38.70725
38.70725
38.70725
38.70217
38.70217
38.70217
38.70217
38.66653
38.66653
38.66653
38.71755
38.71755
38.71755
38.71755
38.67873
38.67873
38.57654
38.57654
38.58891
38.58891
38.63718
38.63718
38.68674
38.68674
38.68674
38.68674
38.56873
38.62389
38.62389
38.69635
38.69635
38.69635
38.69635
38.6573
38.6573
38.63561
38.63561
38.59966
38.56745
38.56745
38.50942
38.48317
38.54037
38.54037
38.55266
38.55266
38.51588
38.71815
38.78409
38.78409
38.78409
38.78452
38.78452
38.78452
38.78452
38.76663
38.76663
38.63005
38.63005
38.63005
38.63005
38.76859
38.76859
38.76859
38.76859
38.78436
38.78436
38.66978
38.66978
38.73446
38.73446
38.78262
38.78262
38.88774
38.88774
38.88774
38.88774
38.64528
38.64528
38.78104
38.78104
38.78104
38.78104
38.75753
38.75753
38.67102
38.67102
38.8409
38.8409
38.8409
38.6964
38.6964
38.83139
38.83139
38.83139
38.83139
38.67484
38.67484
38.68583
38.68583
38.75888
38.75888
38.75888
38.72401
38.72401
38.72401
38.72401
38.66967
38.66967
38.81523
38.81523
38.81523
38.81523
38.8788
38.8788
38.8788
38.87544
38.87544
38.87544
38.85977
38.85977
38.85977
38.64191
38.64191
38.64191
38.64191
38.85076
38.85076
38.85076
38.70845
38.70845
38.70845
38.57898
38.57898
38.81025
38.81025
38.60037
38.60037
38.60037
38.60037
38.67013
38.67013
38.67013
38.67013
38.79468
38.79468
38.61002
38.61002
38.80579
38.80579
38.83932
38.83932
38.83932
38.83932
38.71828
38.71828
38.87032
38.87032
38.87032
38.87032
38.77411
38.77411
38.77525
38.77525
38.62609
38.62609
38.68734
38.68734
38.68734
38.68734
38.68625
38.68625
38.68625
38.68625
38.59046
38.59046
38.78649
38.78649
38.72816
38.84396
38.84396
38.84396
38.84396
38.63959
38.77369
38.77369
38.75518
38.75518
38.70195
38.54977
38.66474
38.66474
38.66474
38.66474
38.61733
38.61733
38.64616
38.64616
38.64616
38.53232
38.70286
38.70286
38.56925
38.56925
38.713
38.713
38.713
38.67539
38.67539
38.72453
38.72453
38.72605
38.72605
38.70817
38.70817
38.59318
38.59318
38.60401
38.60401
38.60401
38.48411
38.48411
38.48411
38.55769
38.55769
38.55769
38.62856
38.62856
38.62856
38.42958
38.42958
38.42958
38.44078
38.44078
38.5913
38.5913
38.5913
38.54033
38.54033
38.54033
38.54033
38.59787
38.4512
38.6522
38.6522
38.56929
38.45587
38.45587
38.41985
38.61854
38.61854
38.61854
38.61854
38.58629
38.58629
38.58629
38.58629
38.44619
38.44619
38.46128
38.46121
38.53019
38.53019
38.53162
38.53162
38.5026
38.5026
38.5026
38.77044
38.80831
38.80639
38.80639
38.78779
38.70835
38.70835
38.83996
38.83996
38.83996
38.83996
38.83996
38.74305
38.74305
38.83952
38.83952
38.83952
38.83952
38.82579
38.82579
38.82579
38.80594
38.80594
38.80594
38.80643
38.80643
38.80643
38.80643
38.80643
38.80784
38.80784
38.80784
38.81844
38.81844
38.69666
38.69666
38.85572
38.85572
38.85572
38.85572
38.6966
38.6966
38.85557
38.85557
38.85557
38.85557
38.73921
38.73921
38.73921
38.73921
38.78887
38.78887
38.78887
38.70292
38.70292
38.70292
38.68567
38.68567
38.75877
38.75877
38.75877
38.774
38.774
38.774
38.774
38.68218
38.68218
38.68218
38.80558
38.80558
38.80558
38.80558
38.6018
38.6018
38.6018
38.6018
38.60998
38.60998
38.7946
38.7946
38.80572
38.80572
38.66782
38.66782
38.66782
38.66782
38.63988
38.63988
38.63988
38.63618
38.63618
38.59043
38.59043
38.78643
38.78643
38.72812
38.7568
38.7568
38.7568
38.7568
38.59904
38.59904
38.61205
38.61205
38.56452
38.56452
38.56452
38.64614
38.64614
38.64614
38.53231
38.57203
38.57203
38.43695
38.47206
38.47206
38.47206
38.62704
38.62704
38.62704
38.65265
38.65265
38.65265
38.65265
38.46615
38.46615
38.65264
38.65264
38.65264
38.65264
38.46616
38.46616
38.60869
38.60869
38.60869
38.60869
38.60869
38.51105
38.51105
38.51105
38.51105
38.53633
38.53633
38.53633
38.53633
38.50251
38.50251
38.47822
38.47822
38.47822
38.58038
38.58038
38.58038
38.58038
38.58038
38.44468
38.54504
38.54504
38.54504
38.48091
38.48091
38.51958
38.51958
38.5209
38.5209
38.5209
38.5209
38.49131
38.49131
38.47864
38.47864
38.47864
38.47864
38.4017
38.4017
38.44337
38.44337
38.44337
38.49454
38.49454
38.43702
38.4713
38.46841
38.46841
38.46841
38.43943
38.43943
38.43943
38.69801
38.85062
38.85062
38.85062
38.74377
38.74377
38.85068
38.85068
38.85068
38.74602
38.86322
38.86322
38.86322
38.88263
38.88263
38.71774
38.87592
38.87592
38.87592
38.87592
38.86335
38.86335
38.87855
38.87855
38.87855
38.87855
38.76688
38.76688
38.76688
38.76688
38.76998
38.76998
38.76998
38.65418
38.65418
38.65418
38.65418
38.74489
38.74489
38.74489
38.74316
38.74316
38.70845
38.70845
38.83969
38.83969
38.83969
38.83969
38.84052
38.84052
38.84052
38.84052
38.84052
38.78344
38.78344
38.76939
38.76939
38.76939
38.7164
38.7164
38.7164
38.78392
38.78392
38.7686
38.7686
38.7686
38.7686
38.62981
38.62981
38.62981
38.62981
38.59909
38.60953
38.60953
38.60953
38.75335
38.75335
38.75335
38.75335
38.87845
38.87845
38.87845
38.66953
38.66953
38.72372
38.72372
38.72372
38.72372
38.81503
38.81503
38.81503
38.81503
38.72185
38.72185
38.79813
38.79813
38.54409
38.54409
38.54409
38.54409
38.61051
38.61051
38.61051
38.61051
38.71823
38.71823
38.8392
38.8392
38.8392
38.8392
38.87025
38.87025
38.87025
38.87025
38.53149
38.53149
38.64954
38.64954
38.64954
38.64954
38.64599
38.64599
38.64599
38.64599
38.63959
38.84394
38.84394
38.84394
38.84394
38.77369
38.77369
38.44791
38.44791
38.61899
38.61899
38.61899
38.61899
38.56878
38.56878
38.56878
38.71302
38.71302
38.71302
38.70286
38.70286
38.56926
38.56926
38.65625
38.65625
38.65625
38.53411
38.47718
38.47718
38.35892
38.35892
38.59133
38.59133
38.59133
38.44079
38.44079
38.54035
38.54035
38.54035
38.54035
38.60872
38.60872
38.60872
38.60872
38.60872
38.37186
38.37186
38.49453
38.49453
38.49453
38.52177
38.52177
38.52177
38.52177
38.52177
38.33714
38.33714
38.4447
38.58041
38.58041
38.58041
38.58041
38.58041
38.54507
38.54507
38.54507
38.48963
38.48963
38.48963
38.48963
38.44821
38.44821
38.44821
38.43144
38.43144
38.43144
38.43144
38.43144
38.41382
38.41382
38.41382
38.41382
38.51217
38.51217
38.51217
38.51218
38.51218
38.51218
38.35204
38.35204
38.31719
38.36028
38.46893
38.46893
38.4971
38.4971
38.35684
38.35684
38.3185
38.3185
38.4905
38.4905
38.4905
38.4905
38.46903
38.46903
38.46903
38.46903
38.36863
38.36863
38.36863
38.3442
38.3442
38.21271
38.21271
38.35647
38.35647
38.35647
38.68312
38.68312
38.68312
38.74007
38.74008
38.80157
38.80157
38.80157
38.74534
38.74534
38.70986
38.80774
38.80774
38.80774
38.80774
38.77562
38.77562
38.69612
38.69612
38.69612
38.77065
38.80857
38.86326
38.86326
38.86326
38.7461
38.88267
38.88267
38.76554
38.76554
38.84694
38.84694
38.84694
38.84694
38.87041
38.87041
38.6691
38.6691
38.68493
38.68493
38.68493
38.75094
38.75094
38.75094
38.75094
38.71916
38.78568
38.78568
38.78568
38.82663
38.82663
38.82663
38.83297
38.83297
38.83297
38.83297
38.73121
38.73121
38.73121
38.6258
38.6258
38.6258
38.88888
38.88888
38.88888
38.88888
38.73424
38.73424
38.67106
38.67106
38.67106
38.78298
38.78298
38.78298
38.72555
38.72555
38.76616
38.76616
38.76616
38.55176
38.55176
38.6014
38.6014
38.58935
38.58935
38.64875
38.64875
38.64875
38.64875
38.8755
38.8755
38.8755
38.69429
38.69429
38.68857
38.68857
38.68857
38.76356
38.76356
38.76356
38.76356
38.63305
38.63305
38.65654
38.65654
38.6894
38.6894
38.6894
38.6894
38.70721
38.70721
38.70721
38.70721
38.74952
38.74952
38.74952
38.74952
38.45009
38.45009
38.46333
38.46333
38.63715
38.63715
38.56871
38.68671
38.68671
38.68671
38.68671
38.62386
38.62386
38.68154
38.68154
38.68154
38.68154
38.4369
38.4369
38.37172
38.37172
38.48316
38.54034
38.54034
38.67539
38.67539
38.72449
38.72449
38.452
38.63609
38.63609
38.63609
38.63609
38.50351
38.65219
38.65219
38.59782
38.45116
38.43434
38.43434
38.43434
38.46609
38.46609
38.46609
38.36437
38.4612
38.53014
38.53014
38.48092
38.48092
38.51953
38.51953
38.30095
38.30095
38.28839
38.34578
38.34578
38.34578
38.43703
38.47125
38.31719
38.46893
38.46893
38.36025
38.49707
38.49707
38.48819
38.48819
38.31425
38.31425
38.40607
38.40607
38.40607
38.40607
38.2549
38.2549
38.2549
38.32194
38.32194
38.32194
38.32194
38.23204
38.23204
38.30131
38.30131
38.3013
38.3013
38.35814
38.35814
38.35814
38.35814
38.26247
38.3716
38.3716
38.3716
38.3716
38.3328
38.3328
38.22574
38.22574
38.74535
38.74535
38.80774
38.80774
38.80774
38.80774
38.70986
38.77562
38.77562
38.81502
38.81502
38.81502
38.81502
38.7806
38.7806
38.78059
38.78059
38.74951
38.70621
38.70621
38.70621
38.70621
38.67379
38.67379
38.80661
38.80661
38.78795
38.87595
38.87595
38.87595
38.87595
38.71779
38.86337
38.86337
38.84063
38.84063
38.84063
38.84063
38.82355
38.82355
38.75348
38.75348
38.75348
38.75348
38.66169
38.66169
38.72702
38.72702
38.78569
38.78569
38.78569
38.78569
38.76717
38.76717
38.80627
38.80627
38.80627
38.63097
38.63097
38.63097
38.63097
38.70463
38.70463
38.70463
38.60518
38.60518
38.78149
38.78149
38.78149
38.78149
38.64563
38.64563
38.75774
38.75774
38.76011
38.76011
38.76011
38.76011
38.74417
38.74417
38.60073
38.60073
38.60073
38.60073
38.56001
38.56001
38.66098
38.66098
38.66098
38.66098
38.62177
38.62177
38.62177
38.85986
38.85986
38.85986
38.75658
38.75658
38.75658
38.75658
38.64689
38.64689
38.6941
38.6941
38.70215
38.70215
38.70215
38.70215
38.71752
38.71752
38.71752
38.71752
38.66652
38.66652
38.66652
38.6787
38.6787
38.45496
38.45496
38.45496
38.45496
38.46635
38.46635
38.46635
38.46635
38.78813
38.78813
38.42603
38.42603
38.69632
38.69632
38.69632
38.69632
38.63558
38.63558
38.65726
38.65726
38.59962
38.43892
38.43892
38.43892
38.43892
38.37581
38.37581
38.37581
38.39939
38.39939
38.69909
38.69909
38.55262
38.55262
38.51583
38.726
38.726
38.70811
38.70811
38.4987
38.4987
38.56135
38.56135
38.45498
38.45582
38.45582
38.56922
38.41979
38.45888
38.45888
38.45888
38.45888
38.43522
38.43522
38.43522
38.43522
38.31719
38.53156
38.53156
38.50252
38.50252
38.50252
38.52084
38.52084
38.52084
38.52084
38.49124
38.49124
38.28748
38.28748
38.33813
38.33813
38.33813
38.33813
38.25581
38.3096
38.3096
38.3096
38.46835
38.46835
38.46835
38.43936
38.43936
38.43936
38.35679
38.35679
38.49046
38.49046
38.49046
38.49046
38.31844
38.31844
38.46896
38.46896
38.46896
38.46896
38.39768
38.39768
38.39768
38.39768
38.3766
38.3766
38.31578
38.31578
38.31578
38.31578
38.23631
38.23631
38.28755
38.28755
38.20044
38.37158
38.37158
38.37158
38.37158
38.26244
38.33277
38.33277
38.34146
38.34146
38.34144
38.34144
38.30495
38.19468
38.69611
38.69611
38.69611
38.7062
38.7062
38.7062
38.7062
38.67379
38.67379
38.76999
38.76999
38.76999
38.87858
38.87858
38.87858
38.87858
38.65419
38.65419
38.65419
38.65419
38.76689
38.76689
38.76689
38.76689
38.76553
38.76553
38.84693
38.84693
38.84693
38.84693
38.84063
38.84063
38.84063
38.84063
38.82354
38.82354
38.71737
38.71737
38.71737
38.71737
38.81871
38.81871
38.81871
38.81871
38.82113
38.82113
38.82113
38.66469
38.66469
38.80789
38.80789
38.80789
38.80649
38.80649
38.80649
38.80649
38.80649
38.77946
38.77946
38.67498
38.67498
38.67498
38.78748
38.78748
38.78748
38.78748
38.65309
38.65309
38.65309
38.65309
38.84107
38.84107
38.84107
38.67114
38.67114
38.69649
38.69649
38.83143
38.83143
38.83143
38.83143
38.64494
38.64494
38.64494
38.779
38.779
38.779
38.52574
38.52574
38.52574
38.52574
38.62969
38.62969