/*--------------------------------*- C++ -*----------------------------------*\
| =========                 |                                                 |
| \\      /  F ield         | OpenFOAM: The Open Source CFD Toolbox           |
|  \\    /   O peration     | Version:  5.x                                   |
|   \\  /    A nd           | Web:      www.OpenFOAM.org                      |
|    \\/     M anipulation  |                                                 |
\*---------------------------------------------------------------------------*/
FoamFile
{
    version     2.0;
    format      ascii;
    class       volScalarField;
    location    "35/gland";
    object      T;
}
// * * * * * * * * * * * * * * * * * * * * * * * * * * * * * * * * * * * * * //

dimensions      [0 0 0 1 0 0 0];

internalField   nonuniform List<scalar> 
295670
(
36.84897
36.85046
36.84992
36.8497
36.84953
36.84994
36.82007
36.5954
36.57017
36.56955
36.56949
36.56866
36.57483
36.58477
36.40384
36.41059
36.41079
36.41063
36.41011
36.41255
36.32477
36.32231
36.32116
36.32803
36.31768
36.79027
36.86231
36.89384
36.91892
36.93217
36.9386
36.94222
36.94385
36.94414
36.94322
36.94071
36.93559
36.92616
36.91046
36.87998
36.83715
36.59959
36.63933
36.68117
36.71372
36.72718
36.7398
36.7465
36.74771
36.74393
36.73395
36.72286
36.6988
36.66348
36.62612
36.53698
36.44274
36.47793
36.51672
36.55477
36.57489
36.58673
36.59675
36.59863
36.59281
36.579
36.56749
36.53712
36.48705
36.46287
36.39963
36.33321
36.36272
36.38419
36.43454
36.45971
36.47244
36.48044
36.48241
36.47654
36.46724
36.44887
36.41503
36.37394
36.34929
36.30834
36.22758
36.26716
36.29755
36.33834
36.36735
36.38538
36.39341
36.39475
36.3905
36.37781
36.35487
36.31271
36.28403
36.25207
36.19241
36.23205
36.2536
36.28608
36.30895
36.31831
36.31987
36.31477
36.3002
36.26428
36.24505
36.21743
36.15715
36.14507
36.16621
36.19509
36.21584
36.23744
36.2445
36.24561
36.24237
36.22309
36.20722
36.17932
36.15679
36.08839
36.12988
36.15592
36.17196
36.17244
36.16849
36.17277
36.1666
36.14189
36.11722
36.09033
36.10793
36.11762
36.1172
36.1152
36.10287
36.05714
36.03425
36.04061
36.84455
36.89489
36.92754
36.94305
36.95269
36.9584
36.96226
36.96425
36.96573
36.96669
36.96689
36.9663
36.96503
36.9634
36.96061
36.95578
36.9489
36.93506
36.91655
36.87242
36.79646
36.56655
36.62587
36.69968
36.74706
36.77977
36.80119
36.81729
36.82604
36.83213
36.83624
36.83712
36.83456
36.82925
36.82242
36.81023
36.79101
36.76628
36.72262
36.67049
36.59919
36.52686
36.38014
36.46047
36.54873
36.60222
36.64141
36.66927
36.693
36.70707
36.71517
36.72062
36.72182
36.71836
36.71147
36.7013
36.68224
36.65562
36.62441
36.57594
36.51335
36.42597
36.3013
36.36541
36.43701
36.48825
36.53151
36.56229
36.58949
36.60812
36.61829
36.62367
36.62482
36.62152
36.61404
36.6002
36.57666
36.54806
36.51171
36.46573
36.39336
36.33741
36.28555
36.34422
36.39707
36.43913
36.47501
36.50223
36.52412
36.53803
36.54475
36.54604
36.54221
36.5322
36.51423
36.48927
36.45899
36.4173
36.37377
36.30933
36.25204
36.20617
36.2553
36.31767
36.36032
36.40019
36.42824
36.44969
36.46593
36.47443
36.47604
36.4712
36.45886
36.43958
36.41567
36.38198
36.34064
36.28914
36.23334
36.17259
36.13161
36.1912
36.24766
36.29375
36.32895
36.36068
36.38283
36.39773
36.40586
36.40731
36.4028
36.39115
36.37306
36.34617
36.31141
36.2737
36.21342
36.1663
36.14127
36.17664
36.22028
36.26018
36.2912
36.31718
36.33434
36.34209
36.34314
36.33938
36.32728
36.3051
36.27594
36.24261
36.19247
36.15984
36.11783
36.0609
36.10607
36.14146
36.1897
36.22576
36.24982
36.2686
36.27703
36.27879
36.27415
36.26082
36.2389
36.2101
36.16173
36.12377
36.08939
36.04341
36.08878
36.11466
36.15822
36.18735
36.20365
36.20968
36.20997
36.2085
36.19703
36.17424
36.13163
36.10212
36.07287
36.03235
36.06401
36.09389
36.10569
36.11819
36.14284
36.14524
36.13639
36.11169
36.10132
36.07952
36.04418
36.02724
36.04563
36.05958
36.07968
36.08205
36.07236
36.05148
36.0393
36.02053
35.99889
36.02862
36.03005
36.02198
36.86925
36.91769
36.93921
36.95181
36.96005
36.96606
36.9704
36.97337
36.97543
36.97673
36.97758
36.9781
36.97821
36.97789
36.9772
36.97617
36.97452
36.97202
36.96848
36.96323
36.95635
36.94644
36.92988
36.89629
36.81633
36.60491
36.66759
36.72761
36.77502
36.80953
36.8349
36.85349
36.86682
36.87651
36.88272
36.88667
36.889
36.8895
36.88807
36.88494
36.88004
36.87219
36.86071
36.84515
36.82312
36.79378
36.75371
36.69974
36.63244
36.56826
36.42176
36.49139
36.57247
36.63557
36.68452
36.72071
36.74788
36.76829
36.78386
36.79426
36.8006
36.80413
36.80488
36.80274
36.79789
36.78978
36.77683
36.75887
36.7355
36.70405
36.662
36.60629
36.53782
36.46395
36.30637
36.37902
36.46359
36.52841
36.58212
36.62392
36.65636
36.6814
36.70088
36.7147
36.72322
36.72767
36.72857
36.72596
36.71964
36.70867
36.69198
36.66988
36.64139
36.60473
36.55684
36.49717
36.42744
36.34812
36.2148
36.29325
36.37354
36.4404
36.49622
36.54132
36.5769
36.60528
36.6272
36.64353
36.65429
36.65994
36.66107
36.65779
36.64973
36.63626
36.61719
36.59226
36.56034
36.52051
36.47012
36.40833
36.32556
36.25432
36.21159
36.29073
36.36055
36.41998
36.46819
36.50632
36.5371
36.56094
36.57864
36.5909
36.59762
36.59896
36.59504
36.58562
36.57072
36.55015
36.5229
36.48876
36.4457
36.39235
36.32929
36.2467
36.1642
36.13506
36.21284
36.29146
36.35073
36.40091
36.4409
36.4731
36.49891
36.5179
36.53079
36.53789
36.5393
36.53519
36.52527
36.5095
36.4872
36.45819
36.42254
36.37764
36.32175
36.25612
36.1803
36.15531
36.22451
36.28467
36.33604
36.37679
36.41085
36.43822
36.45887
36.47289
36.4803
36.48172
36.47754
36.46694
36.4497
36.42575
36.39514
36.35782
36.3124
36.25782
36.18674
36.12148
36.07515
36.14863
36.21766
36.2696
36.31372
36.34918
36.37838
36.39996
36.41479
36.42261
36.4241
36.41973
36.40849
36.39044
36.36512
36.33272
36.29352
36.24478
36.18717
36.11877
36.08886
36.13742
36.20222
36.24993
36.28723
36.31733
36.34008
36.35555
36.36372
36.36522
36.36076
36.349
36.33004
36.30343
36.27054
36.2276
36.17362
36.11461
36.05835
35.99561
36.05889
36.12247
36.18587
36.22279
36.25407
36.27663
36.2928
36.30299
36.30505
36.29903
36.28582
36.26668
36.2398
36.20651
36.16069
36.09023
36.03231
35.97954
36.06629
36.11403
36.15865
36.18561
36.20829
36.2274
36.24065
36.24333
36.23542
36.2191
36.19702
36.17445
36.14173
36.09467
36.02378
36.01357
36.05574
36.08566
36.1026
36.13524
36.1586
36.17175
36.17431
36.16658
36.14918
36.1226
36.09719
36.07366
36.03586
36.02334
36.03812
36.05587
36.07408
36.08732
36.0896
36.08185
36.06676
36.04843
36.03643
36.01035
35.98936
36.01041
36.02789
36.03098
36.01568
36.00402
35.97426
36.81156
36.89871
36.93946
36.9542
36.96319
36.96951
36.97409
36.97753
36.98012
36.98203
36.98342
36.98436
36.98497
36.98531
36.98538
36.98518
36.98471
36.98395
36.98281
36.98117
36.97895
36.97595
36.972
36.96665
36.95914
36.948
36.9261
36.86372
36.5344
36.63496
36.72742
36.78284
36.82088
36.84932
36.87056
36.88661
36.89875
36.90786
36.91455
36.91915
36.9221
36.92371
36.92404
36.9231
36.92086
36.91716
36.91158
36.90374
36.89324
36.87926
36.86084
36.83631
36.80347
36.75869
36.69289
36.59074
36.37109
36.46881
36.57662
36.64665
36.69975
36.74191
36.77498
36.8005
36.82011
36.8351
36.84634
36.85422
36.85926
36.86195
36.86251
36.86093
36.85715
36.85081
36.84133
36.82831
36.81119
36.78882
36.75975
36.72233
36.67505
36.61529
36.53215
36.42413
36.35523
36.45999
36.53899
36.6003
36.64991
36.69027
36.7223
36.74737
36.76685
36.78168
36.79233
36.79923
36.80291
36.80366
36.80153
36.79636
36.7877
36.77505
36.75802
36.73593
36.7076
36.67156
36.62671
36.57173
36.50293
36.41201
36.30463
36.27074
36.36536
36.44774
36.51533
36.57029
36.61537
36.65189
36.68092
36.70378
36.72135
36.73423
36.7428
36.74742
36.74836
36.74568
36.73921
36.7286
36.7135
36.69343
36.66767
36.6351
36.59444
36.54468
36.48365
36.40778
36.31018
36.22499
36.19838
36.28665
36.36897
36.43983
36.49885
36.54755
36.58749
36.61955
36.64502
36.66477
36.67935
36.68923
36.69465
36.69576
36.69261
36.68508
36.67299
36.65597
36.6335
36.60494
36.56912
36.52494
36.47142
36.40657
36.33011
36.23745
36.13288
36.21329
36.29666
36.36982
36.43272
36.48441
36.52695
36.5614
36.58898
36.61059
36.62662
36.63748
36.64346
36.6447
36.64123
36.63294
36.61965
36.60098
36.57652
36.54573
36.50741
36.46049
36.40342
36.33483
36.25788
36.17649
36.14301
36.2246
36.30231
36.36883
36.42337
36.46818
36.50472
36.53419
36.55744
36.5748
36.58661
36.59306
36.59439
36.59067
36.5817
36.56727
36.54711
36.5209
36.48811
36.44763
36.39833
36.33798
36.26604
36.17999
36.09848
36.05845
36.14773
36.23543
36.30441
36.36154
36.40901
36.44816
36.47953
36.50425
36.52276
36.53541
36.54233
36.54374
36.53978
36.53016
36.51475
36.49329
36.46545
36.43041
36.38718
36.33526
36.27221
36.19653
36.1084
36.09465
36.17064
36.23749
36.29651
36.34774
36.39034
36.42378
36.44977
36.46934
36.48282
36.49025
36.49178
36.48752
36.47723
36.46088
36.43828
36.40892
36.3711
36.32399
36.26921
36.20604
36.13092
36.04795
36.03526
36.09622
36.1595
36.22618
36.28385
36.33056
36.36596
36.39288
36.4133
36.4277
36.43592
36.43766
36.43285
36.4217
36.40445
36.38105
36.35042
36.30966
36.25733
36.19499
36.1207
36.07214
36.02663
36.08019
36.15549
36.21764
36.26774
36.30488
36.33231
36.3535
36.3691
36.37831
36.38029
36.37483
36.36255
36.3442
36.32041
36.2887
36.24592
36.18786
36.12197
36.05387
36.00123
36.01222
36.07234
36.1466
36.19942
36.23895
36.26678
36.28898
36.30582
36.31562
36.31776
36.31191
36.29879
36.27915
36.25486
36.22166
36.177
36.11463
36.04605
35.97149
35.99927
36.07172
36.12867
36.16643
36.19527
36.21884
36.23645
36.24725
36.2499
36.24305
36.2291
36.20824
36.1822
36.14924
36.09936
36.03519
35.9658
36.00417
36.05047
36.08018
36.11522
36.14089
36.15966
36.17228
36.17667
36.1672
36.15187
36.12923
36.09398
36.06634
36.0337
35.9524
35.99657
36.03803
36.05258
36.06621
36.07966
36.09281
36.0746
36.05996
36.04661
36.02137
35.9812
35.99157
35.99181
36.00044
36.00391
35.99567
35.98902
35.98796
36.8693
36.92827
36.9506
36.96232
36.96984
36.97521
36.97923
36.98228
36.98463
36.98644
36.98781
36.98883
36.98955
36.99003
36.99028
36.99033
36.99019
36.98983
36.98925
36.98839
36.9872
36.98563
36.98357
36.98089
36.9774
36.97276
36.96647
36.95726
36.94184
36.90384
36.81402
36.60536
36.70041
36.77064
36.81765
36.85093
36.87563
36.89454
36.90912
36.92043
36.92917
36.93586
36.94086
36.94441
36.94673
36.94798
36.94824
36.94752
36.94578
36.9429
36.93868
36.93289
36.92525
36.91531
36.90248
36.88589
36.86432
36.83581
36.79657
36.73995
36.64841
36.54354
36.42458
36.54029
36.62708
36.69449
36.74462
36.78309
36.8134
36.83737
36.85625
36.87101
36.88242
36.89102
36.89719
36.90123
36.90341
36.90386
36.90261
36.89958
36.89457
36.88727
36.87736
36.86439
36.8477
36.82643
36.79948
36.76539
36.72168
36.66367
36.58641
36.48065
36.31474
36.42076
36.51396
36.59168
36.65261
36.7005
36.73891
36.76991
36.79474
36.8144
36.82975
36.84144
36.84992
36.85552
36.85856
36.85919
36.85745
36.85324
36.84632
36.83635
36.82295
36.80559
36.7835
36.75574
36.72123
36.67842
36.62454
36.55548
36.46869
36.36824
36.22229
36.31867
36.42307
36.50518
36.5723
36.62669
36.67106
36.70732
36.73674
36.7603
36.77886
36.79312
36.80357
36.81055
36.81437
36.81516
36.81298
36.80771
36.79913
36.78692
36.77065
36.74975
36.72342
36.69074
36.65064
36.60154
36.54114
36.46646
36.37692
36.27462
36.24616
36.34553
36.43046
36.5008
36.55951
36.6084
36.64878
36.68185
36.70854
36.72974
36.74614
36.75824
36.76641
36.7709
36.77184
36.76927
36.7631
36.75312
36.73903
36.7204
36.69662
36.66691
36.63036
36.58591
36.53227
36.46807
36.39066
36.2997
36.20291
36.18118
36.27378
36.36107
36.4341
36.49644
36.54916
36.59297
36.62904
36.65835
36.68179
36.70003
36.71355
36.72272
36.72778
36.72884
36.72595
36.71902
36.70786
36.69215
36.67149
36.6453
36.61279
36.57304
36.52493
36.46746
36.39997
36.32021
36.22072
36.14507
36.10682
36.19289
36.29159
36.36932
36.43549
36.4915
36.53831
36.57706
36.60875
36.63418
36.65406
36.66886
36.67892
36.68448
36.68565
36.68249
36.67488
36.66265
36.64551
36.62305
36.59469
36.55965
36.51707
36.46581
36.40487
36.33321
36.24861
36.1542
36.13505
36.22175
36.30537
36.37505
36.43362
36.48312
36.52457
36.55868
36.58606
36.60745
36.62341
36.6343
36.64032
36.6416
36.63818
36.62995
36.61674
36.59829
36.57414
36.54359
36.50597
36.46067
36.40681
36.34302
36.26653
36.17066
36.08954
36.071
36.14562
36.24177
36.31342
36.37363
36.42587
36.47037
36.50714
36.5365
36.5593
36.57635
36.58805
36.59455
36.59594
36.59224
36.58339
36.56926
36.5496
36.5238
36.49094
36.4504
36.4021
36.34604
36.28079
36.20045
36.11077
36.08685
36.17601
36.24812
36.30976
36.36556
36.4137
36.45329
36.4846
36.50873
36.5268
36.53932
36.54634
36.54786
36.54385
36.53434
36.51931
36.49852
36.47114
36.43593
36.39213
36.34003
36.28142
36.21456
36.12607
36.03917
36.02128
36.09749
36.1769
36.24239
36.30193
36.35375
36.39615
36.42934
36.45474
36.47383
36.48721
36.4948
36.49646
36.49211
36.48189
36.46592
36.44405
36.41514
36.37766
36.33055
36.27462
36.21235
36.14305
36.06499
36.03144
36.09167
36.16771
36.23249
36.28915
36.33462
36.36959
36.39629
36.41649
36.43079
36.43897
36.44077
36.43607
36.42511
36.40812
36.38508
36.35468
36.31495
36.2639
36.20278
36.13533
36.06524
35.99722
36.03052
36.08511
36.15716
36.21987
36.26773
36.30394
36.33215
36.35377
36.36917
36.37808
36.38009
36.37489
36.36304
36.3448
36.32025
36.28845
36.24718
36.19166
36.12634
36.06077
36.00408
36.02614
36.07206
36.14388
36.19313
36.23089
36.2614
36.28483
36.30134
36.31077
36.31294
36.30742
36.29482
36.2751
36.2483
36.21444
36.17156
36.11311
36.05142
35.99919
36.00999
36.05765
36.10974
36.14991
36.18448
36.20963
36.22632
36.23512
36.23712
36.2322
36.21992
36.19938
36.16884
36.13182
36.08094
36.03264
35.98605
35.97292
36.01965
36.05845
36.09979
36.12583
36.14436
36.15257
36.15407
36.15001
36.13771
36.11619
36.07528
36.04229
36.00138
35.98884
36.00934
36.03314
36.05184
36.06244
36.06454
36.05837
36.04513
36.02202
35.99921
35.97322
35.96103
35.97804
35.97962
35.97289
36.89737
36.94137
36.9577
36.96763
36.97427
36.97908
36.98273
36.98556
36.98778
36.98951
36.99088
36.99193
36.99272
36.9933
36.99367
36.99388
36.99393
36.99381
36.99353
36.99306
36.99239
36.99148
36.99028
36.98874
36.98678
36.98428
36.98107
36.9769
36.97129
36.96326
36.95072
36.92668
36.83796
36.63937
36.73567
36.79731
36.84051
36.87112
36.89385
36.9113
36.92495
36.93571
36.9442
36.95087
36.95605
36.95996
36.96279
36.96467
36.96569
36.96591
36.96533
36.96393
36.96163
36.95831
36.95382
36.94795
36.94043
36.93089
36.91878
36.90337
36.88351
36.85726
36.82111
36.76921
36.69616
36.57887
36.47364
36.57794
36.66349
36.72714
36.77528
36.8122
36.84103
36.86391
36.88218
36.89673
36.90825
36.91723
36.92407
36.92903
36.93233
36.93413
36.93451
36.9335
36.93104
36.927
36.92119
36.91337
36.90322
36.89029
36.87399
36.85357
36.82792
36.79536
36.75326
36.698
36.62396
36.52948
36.41061
36.35197
36.4605
36.55624
36.63057
36.68996
36.73712
36.7747
36.80495
36.82941
36.84911
36.86482
36.87718
36.88663
36.89353
36.89815
36.90067
36.90122
36.8998
36.89635
36.89072
36.88266
36.87189
36.85798
36.8404
36.81846
36.79128
36.7576
36.71553
36.66256
36.59601
36.51247
36.40048
36.30492
36.2529
36.36955
36.46771
36.54838
36.61463
36.66876
36.71286
36.74889
36.77836
36.80232
36.8216
36.83685
36.84859
36.85722
36.86302
36.86622
36.86691
36.86512
36.86078
36.85372
36.84369
36.83034
36.81324
36.79176
36.7652
36.73263
36.69278
36.64392
36.58392
36.51082
36.42185
36.30719
36.19157
36.28146
36.39204
36.47615
36.54686
36.60586
36.65484
36.69547
36.72903
36.75655
36.77884
36.79657
36.81031
36.82046
36.82732
36.83111
36.83193
36.82981
36.82468
36.81636
36.80461
36.78905
36.76921
36.74447
36.7141
36.67717
36.63254
36.57876
36.51404
36.43696
36.34329
36.23933
36.2181
36.32331
36.40886
36.48326
36.54633
36.59939
36.64385
36.68086
36.71141
36.73631
36.75622
36.77172
36.78321
36.79101
36.79533
36.79627
36.79386
36.78803
36.7786
36.76533
36.74782
36.72561
36.69807
36.66446
36.62388
36.57528
36.51739
36.44868
36.36858
36.27656
36.1711
36.15389
36.25276
36.3423
36.42105
36.48837
36.54517
36.59295
36.63298
36.66623
36.69349
36.71538
36.73247
36.74518
36.75383
36.75863
36.75968
36.75702
36.75055
36.74012
36.72547
36.70621
36.68184
36.65177
36.61531
36.57157
36.51946
36.45756
36.38451
36.30024
36.19795
36.10902
36.08696
36.17413
36.27689
36.35927
36.43071
36.49091
36.54158
36.58435
36.62018
36.64971
36.67348
36.69205
36.70589
36.71534
36.72059
36.72175
36.71884
36.71179
36.70043
36.6845
36.66358
36.63716
36.60466
36.56552
36.519
36.46382
36.39808
36.32097
36.23234
36.13671
36.10988
36.21185
36.29735
36.37227
36.4353
36.48849
36.53393
36.5724
36.60423
36.62985
36.64985
36.66477
36.67499
36.68068
36.68195
36.6788
36.67117
36.65892
36.64177
36.61925
36.59077
36.55579
36.51397
36.46486
36.40709
36.33812
36.25794
36.15731
36.05262
36.04986
36.14107
36.2344
36.31172
36.37696
36.43257
36.48083
36.5221
36.5563
36.58376
36.60516
36.62114
36.63212
36.63826
36.63964
36.63625
36.62804
36.61491
36.59658
36.57247
36.5419
36.50433
36.45963
36.4079
36.34784
36.2765
36.19395
36.10446
36.08667
36.16797
36.24673
36.31399
36.37257
36.42409
36.46843
36.50509
36.53441
36.55721
36.57426
36.58603
36.59265
36.59413
36.59048
36.58168
36.56765
36.54812
36.52243
36.48974
36.44938
36.40146
36.34657
36.28391
36.21131
36.1206
36.04737
36.02016
36.08899
36.17474
36.2453
36.30743
36.36267
36.41048
36.44974
36.48092
36.50516
36.52335
36.53596
36.54308
36.54468
36.54076
36.53132
36.51632
36.49553
36.46824
36.43338
36.38998
36.33838
36.27981
36.21385
36.13839
36.05457
36.01327
36.09184
36.17261
36.23812
36.29641
36.34753
36.38928
36.4223
36.44809
36.46758
36.48112
36.48877
36.4905
36.48628
36.47614
36.46006
36.43786
36.4089
36.37196
36.3256
36.27074
36.20917
36.13957
36.05863
35.96986
36.01644
36.08916
36.16443
36.22499
36.27831
36.3224
36.35757
36.38522
36.40616
36.42066
36.42874
36.43055
36.42614
36.41535
36.39808
36.37424
36.34328
36.30407
36.2554
36.19858
36.13402
36.06034
35.96979
36.01159
36.078
36.14665
36.20027
36.24786
36.28599
36.3158
36.33822
36.35369
36.3621
36.36393
36.35946
36.34806
36.32958
36.30395
36.27045
36.22779
36.17729
36.11959
36.05232
35.9745
35.99653
36.05291
36.11219
36.16472
36.20675
36.23827
36.26217
36.27921
36.28866
36.2907
36.28565
36.27291
36.25297
36.22583
36.18964
36.14255
36.07933
36.02898
35.96396
35.95929
36.01795
36.06228
36.11733
36.15057
36.17588
36.19461
36.20679
36.20936
36.20268
36.18748
36.16627
36.13831
36.09927
36.04509
35.99379
35.97865
36.01927
36.04997
36.07096
36.09953
36.11015
36.11254
36.10658
36.0914
36.06383
36.0377
36.00332
35.96489
35.96169
35.98287
35.99716
36.01396
36.0163
36.00838
35.99348
35.9772
36.89953
36.94542
36.96176
36.97086
36.97713
36.98171
36.98519
36.98789
36.99002
36.99172
36.99308
36.99415
36.99499
36.99563
36.9961
36.99641
36.99658
36.99662
36.99653
36.9963
36.99592
36.99538
36.99465
36.9937
36.9925
36.99099
36.98908
36.98668
36.98362
36.97965
36.97431
36.96684
36.95514
36.9298
36.84134
36.64407
36.75293
36.81434
36.85495
36.88437
36.9063
36.9231
36.93625
36.9467
36.95504
36.96171
36.967
36.97115
36.97432
36.97663
36.97818
36.97904
36.97923
36.97876
36.97762
36.97574
36.97306
36.96946
36.96479
36.95886
36.95142
36.94209
36.93038
36.91555
36.8964
36.87107
36.83662
36.78771
36.70708
36.58656
36.48093
36.60418
36.68693
36.74918
36.79629
36.83246
36.86072
36.88311
36.90104
36.91548
36.92708
36.93633
36.94361
36.94919
36.95327
36.95602
36.95753
36.95787
36.95704
36.95502
36.95171
36.94698
36.94065
36.93247
36.92214
36.90922
36.89315
36.87312
36.848
36.81607
36.77485
36.72069
36.64912
36.55052
36.41917
36.36976
36.48373
36.58188
36.65768
36.71659
36.76328
36.80061
36.83065
36.85498
36.87473
36.89072
36.90355
36.91369
36.92149
36.92722
36.93109
36.93322
36.9337
36.93254
36.92969
36.92504
36.91842
36.90958
36.89823
36.88394
36.86619
36.84429
36.81727
36.78379
36.74205
36.68964
36.62296
36.53639
36.43054
36.31454
36.26771
36.39218
36.49639
36.57879
36.64531
36.69945
36.74367
36.77984
36.80948
36.83376
36.85356
36.86955
36.88225
36.89207
36.89931
36.90421
36.90692
36.90754
36.90607
36.90245
36.89657
36.88823
36.87714
36.86296
36.84521
36.82331
36.7965
36.76376
36.72375
36.67479
36.61476
36.54074
36.44838
36.32708
36.19488
36.31973
36.42165
36.50859
36.58046
36.64006
36.6896
36.7307
36.76476
36.79289
36.816
36.83476
36.84974
36.86136
36.86997
36.87582
36.87906
36.8798
36.87805
36.87375
36.86675
36.85686
36.84376
36.82708
36.80632
36.78085
36.74991
36.71248
36.66732
36.61292
36.54746
36.46821
36.37384
36.25606
36.13615
36.24148
36.3531
36.44345
36.51937
36.58345
36.63743
36.68269
36.72051
36.75199
36.77799
36.79922
36.81624
36.8295
36.83935
36.84606
36.84979
36.85065
36.84864
36.84371
36.83571
36.82441
36.80951
36.7906
36.76717
36.7386
36.70411
36.66272
36.61323
36.5543
36.4845
36.40155
36.30345
36.19486
36.18157
36.2844
36.37931
36.45965
36.52802
36.58608
36.63504
36.67616
36.71059
36.7392
36.76269
36.78158
36.79635
36.80735
36.81486
36.81905
36.82002
36.81778
36.81226
36.80333
36.79074
36.77418
36.75323
36.72739
36.69605
36.65843
36.61354
36.56015
36.49701
36.42286
36.33524
36.23698
36.12782
36.11731
36.21557
36.31525
36.40037
36.47276
36.53454
36.58684
36.63093
36.66807
36.69914
36.72475
36.74543
36.76162
36.7737
36.78196
36.78659
36.78766
36.7852
36.77914
36.76933
36.75554
36.73741
36.71453
36.6864
36.65248
36.61204
36.56401
36.50707
36.44006
36.36156
36.26913
36.16431
36.04739
36.13977
36.25064
36.34074
36.41677
36.48184
36.53712
36.58395
36.62369
36.65717
36.68489
36.7073
36.72487
36.738
36.747
36.75204
36.75322
36.75055
36.74396
36.73331
36.71835
36.6987
36.67391
36.64354
36.6071
36.564
36.51313
36.45303
36.38262
36.29986
36.2016
36.09627
36.07408
36.18549
36.27969
36.35871
36.42673
36.48476
36.53429
36.57668
36.61264
36.6425
36.66665
36.68559
36.69976
36.70948
36.71494
36.71623
36.71335
36.70623
36.69475
36.67862
36.65746
36.63076
36.59808
36.55906
36.51328
36.4597
36.39674
36.32335
36.23751
36.12614
36.01813
36.00416
36.11238
36.2146
36.29628
36.36751
36.42846
36.48092
36.52621
36.56482
36.59691
36.62284
36.64316
36.65838
36.66885
36.67474
36.67614
36.67303
36.66538
36.65304
36.63574
36.61304
36.58437
36.54925
36.50744
36.45873
36.40223
36.33627
36.25955
36.17008
36.06619
36.04807
36.14418
36.2268
36.30259
36.36722
36.42305
36.4715
36.51295
36.54737
36.57514
36.59689
36.61322
36.62447
36.63082
36.63232
36.62899
36.62077
36.60753
36.589
36.56471
36.53399
36.49628
36.45146
36.39948
36.33948
36.26953
36.1878
36.09971
36.00065
36.06563
36.14903
36.23114
36.30056
36.36025
36.41195
36.45625
36.49307
36.52277
36.54606
36.56356
36.57565
36.58247
36.58409
36.58051
36.57169
36.55748
36.53764
36.51165
36.4788
36.43847
36.39061
36.33512
36.27083
36.19558
36.10041
36.02887
35.96089
36.05906
36.15152
36.22723
36.29155
36.3466
36.39365
36.43302
36.46487
36.48985
36.50863
36.5216
36.52889
36.53063
36.52682
36.51736
36.50211
36.48083
36.45296
36.41774
36.37478
36.32396
36.26456
36.1949
36.11336
36.01842
35.96552
36.0587
36.14522
36.21472
36.27358
36.32367
36.36613
36.40052
36.42734
36.44746
36.46142
36.46928
36.47114
36.46703
36.45684
36.44047
36.41766
36.38764
36.34957
36.3035
36.24947
36.18574
36.11058
36.023
35.95998
36.04809
36.12429
36.18995
36.24538
36.29139
36.32853
36.35727
36.3788
36.39396
36.40268
36.40474
36.40013
36.3889
36.37129
36.34692
36.31457
36.27346
36.22293
36.16324
36.09578
36.01702
35.94672
36.02385
36.09885
36.15963
36.20759
36.24733
36.27812
36.30111
36.31764
36.32754
36.32992
36.32451
36.312
36.29305
36.26705
36.23229
36.18877
36.13542
36.06005
35.98938
35.91896
36.00851
36.05922
36.11423
36.15565
36.18804
36.21319
36.23103
36.24227
36.2451
36.23855
36.22483
36.20446
36.17608
36.13944
36.09664
36.04143
35.97218
35.96816
36.00959
36.04851
36.08736
36.11235
36.13375
36.14931
36.153
36.14338
36.12458
36.10394
36.06594
36.03515
35.98891
35.95914
35.96467
35.97594
36.00026
36.02652
36.03789
36.0398
36.03482
36.01908
35.99123
35.9795
36.89954
36.94626
36.96331
36.97268
36.97889
36.98341
36.98685
36.98952
36.99163
36.99332
36.99468
36.99578
36.99665
36.99734
36.99787
36.99826
36.99852
36.99866
36.9987
36.99862
36.99843
36.99812
36.99768
36.99708
36.99631
36.99534
36.99412
36.99261
36.99072
36.98835
36.98532
36.98139
36.97612
36.96862
36.95634
36.93043
36.83885
36.64409
36.75653
36.8217
36.86341
36.89267
36.91445
36.93115
36.94421
36.95459
36.96291
36.96962
36.97503
36.97936
36.98277
36.9854
36.98733
36.98863
36.98936
36.98953
36.98916
36.98821
36.98666
36.98445
36.98149
36.97767
36.97286
36.96685
36.95939
36.9501
36.93847
36.92372
36.90468
36.87952
36.84491
36.79331
36.70935
36.57758
36.48095
36.61041
36.69867
36.7622
36.80969
36.84601
36.87432
36.89673
36.91468
36.92918
36.94092
36.95042
36.95804
36.96407
36.96872
36.97215
36.97447
36.97576
36.97607
36.9754
36.97372
36.97097
36.96705
36.96182
36.95509
36.94662
36.93609
36.92306
36.90694
36.88689
36.86171
36.82967
36.78819
36.73341
36.65881
36.55357
36.41243
36.36978
36.49334
36.59468
36.67313
36.73369
36.7811
36.81878
36.84908
36.87363
36.89362
36.90992
36.92316
36.93384
36.94232
36.94888
36.95372
36.95701
36.95885
36.95929
36.95834
36.95596
36.95208
36.94654
36.93918
36.92974
36.9179
36.90325
36.88522
36.86307
36.8358
36.802
36.75974
36.7062
36.63727
36.54786
36.43477
36.3047
36.26771
36.39916
36.50948
36.59627
36.66516
36.72057
36.76554
36.80228
36.8324
36.85715
36.87748
36.8941
36.90756
36.91829
36.92661
36.93278
36.93698
36.93933
36.93989
36.93868
36.93566
36.93071
36.92368
36.91436
36.90244
36.88755
36.86922
36.84681
36.8195
36.78621
36.74553
36.69558
36.63378
36.5565
36.45846
36.33149
36.19491
36.32467
36.43672
36.52765
36.60231
36.66376
36.71448
36.75649
36.79132
36.82018
36.84405
36.86368
36.87965
36.89243
36.90238
36.90978
36.91483
36.91766
36.91835
36.9169
36.91327
36.90734
36.89893
36.88781
36.87364
36.85603
36.83444
36.80821
36.77649
36.7382
36.69198
36.63608
36.56823
36.48578
36.38472
36.2572
36.13618
36.2469
36.36729
36.4633
36.5429
36.60933
36.66486
36.71135
36.75023
36.78269
36.8097
36.83203
36.85029
36.86496
36.87641
36.88495
36.89079
36.89407
36.89488
36.89321
36.88902
36.88218
36.8725
36.85973
36.84351
36.82343
36.79893
36.76934
36.73379
36.69122
36.64032
36.57949
36.50663
36.41925
36.31281
36.19865
36.18733
36.30101
36.40071
36.48491
36.55592
36.61576
36.66623
36.70872
36.74439
36.77423
36.79904
36.81941
36.83583
36.8487
36.85831
36.8649
36.86861
36.86952
36.86765
36.86294
36.85525
36.84439
36.83007
36.81195
36.7896
36.76246
36.72985
36.69089
36.64451
36.58944
36.52414
36.4466
36.35493
36.24667
36.13741
36.10843
36.23337
36.3381
36.42699
36.50246
36.5663
36.6204
36.66618
36.70479
36.73727
36.7644
36.78678
36.80488
36.81908
36.82972
36.83702
36.84115
36.84217
36.84011
36.8349
36.8264
36.8144
36.79863
36.7787
36.7542
36.72459
36.6892
36.64713
36.59727
36.53839
36.46885
36.38661
36.29049
36.17047
36.03301
36.15647
36.27339
36.36794
36.44791
36.51552
36.57302
36.62187
36.66327
36.69828
36.72768
36.75203
36.77176
36.78728
36.79891
36.80691
36.81144
36.81258
36.81033
36.80463
36.79535
36.78225
36.76505
36.74335
36.71675
36.68475
36.64671
36.60171
36.54861
36.48614
36.4125
36.32521
36.22239
36.10399
36.10199
36.20443
36.30606
36.39079
36.46217
36.52303
36.57491
36.61909
36.65666
36.68836
36.71469
36.73606
36.75289
36.76552
36.77422
36.77915
36.78039
36.77796
36.77178
36.76171
36.74752
36.72889
36.70541
36.67668
36.64226
36.60155
36.55365
36.49735
36.43133
36.35355
36.26032
36.14739
36.05439
36.03079
36.12622
36.23999
36.3293
36.40465
36.46919
36.52431
36.57144
36.61172
36.64583
36.67421
36.69727
36.71543
36.72907
36.73848
36.74382
36.74518
36.74256
36.73588
36.72502
36.70971
36.68961
36.66431
36.63336
36.59638
36.55285
36.50186
36.4421
36.3722
36.29021
36.19084
36.08476
36.06197
36.16943
36.26201
36.34148
36.41028
36.46914
36.51956
36.56277
36.59944
36.62998
36.65479
36.67433
36.68903
36.69918
36.70495
36.70642
36.70359
36.69641
36.68471
36.66824
36.64662
36.61939
36.58611
36.54639
36.49975
36.44526
36.38148
36.30719
36.22136
36.11402
36.00265
35.99571
36.08775
36.18694
36.2711
36.34506
36.40844
36.46266
36.50906
36.54845
36.58127
36.60794
36.62895
36.64476
36.65568
36.6619
36.66349
36.66046
36.65272
36.64014
36.62243
36.5992
36.56994
36.53418
36.49152
36.44141
36.38276
36.3141
36.23454
36.14387
36.04897
35.99379
36.10102
36.19086
36.27158
36.34085
36.39965
36.44963
36.49196
36.52725
36.55595
36.57854
36.59553
36.60729
36.61398
36.61569
36.61243
36.6041
36.59057
36.57154
36.54655
36.51507
36.47663
36.43076
36.37662
36.31273
36.23761
36.15156
36.05063
35.94545
36.00741
36.10358
36.18842
36.26461
36.32893
36.38316
36.42891
36.467
36.49792
36.52221
36.54047
36.55313
36.56037
36.56222
36.55867
36.54968
36.53512
36.51467
36.48777
36.45381
36.41228
36.36262
36.3037
36.23344
36.15195
36.05652
35.95346
36.01041
36.09905
36.17842
36.24857
36.30833
36.35839
36.39951
36.43277
36.45887
36.47849
36.49217
36.50006
36.50207
36.49817
36.48839
36.4727
36.45072
36.42178
36.38522
36.34011
36.28546
36.22089
36.1451
36.05615
35.9591
36.00215
36.08512
36.15855
36.22497
36.27968
36.32355
36.35919
36.38726
36.40837
36.42316
36.4318
36.43401
36.42965
36.41897
36.40205
36.37841
36.34729
36.30827
36.25971
36.19927
36.12858
36.04547
35.95805
35.9798
36.04674
36.13141
36.19101
36.2371
36.27575
36.30611
36.3288
36.34477
36.35424
36.35666
36.3518
36.34013
36.32193
36.29639
36.26261
36.22108
36.16934
36.10128
36.02107
35.94126
35.94373
36.02938
36.0892
36.13708
36.18155
36.21461
36.23828
36.25558
36.26556
36.268
36.26303
36.25037
36.23089
36.20411
36.16634
36.11891
36.06181
35.99982
35.91274
35.976
36.02654
36.07965
36.11144
36.13566
36.15205
36.15995
36.16176
36.15844
36.14801
36.12633
36.10239
36.0544
36.00695
35.96258
35.97158
36.00331
36.01788
36.02151
36.02891
36.03009
36.02719
36.02098
36.01959
35.99254
35.9535
35.92372
35.93175
36.89738
36.94542
36.96331
36.97324
36.97974
36.98439
36.98789
36.9906
36.99275
36.99446
36.99584
36.99696
36.99787
36.9986
36.99918
36.99962
36.99995
37.00018
37.00031
37.00034
37.00028
37.00012
36.99986
36.99949
36.99899
36.99835
36.99754
36.99654
36.99529
36.99375
36.99184
36.98943
36.98635
36.98233
36.97687
36.96894
36.95597