/*--------------------------------*- C++ -*----------------------------------*\
| =========                 |                                                 |
| \\      /  F ield         | OpenFOAM: The Open Source CFD Toolbox           |
|  \\    /   O peration     | Version:  5.x                                   |
|   \\  /    A nd           | Web:      www.OpenFOAM.org                      |
|    \\/     M anipulation  |                                                 |
\*---------------------------------------------------------------------------*/
FoamFile
{
    version     2.0;
    format      ascii;
    class       volScalarField;
    location    "30/gland";
    object      T;
}
// * * * * * * * * * * * * * * * * * * * * * * * * * * * * * * * * * * * * * //

dimensions      [0 0 0 1 0 0 0];

internalField   nonuniform List<scalar> 
202541
(
36.66763
36.7281
36.73036
36.72361
36.14827
36.18228
36.18624
36.18119
35.8528
35.85905
35.84068
35.63884
35.63529
35.63009
35.46487
35.48514
36.76488
36.83908
36.87276
36.88499
36.88734
36.88023
36.85968
36.80576
36.67022
36.18412
36.34002
36.43947
36.47791
36.48764
36.45766
36.40387
36.28305
35.85423
35.97981
36.12287
36.16581
36.1783
36.14331
36.07278
35.96122
35.61308
35.74538
35.88383
35.92508
35.93828
35.90898
35.83178
35.71851
35.46141
35.57505
35.68689
35.73432
35.7431
35.72099
35.63318
35.53853
35.31099
35.43046
35.51923
35.57774
35.58546
35.5575
35.45409
35.36873
35.28812
35.34932
35.43663
35.44563
35.4092
35.32648
35.20178
35.16111
35.23487
35.30789
35.31704
35.26046
35.20741
35.11462
35.06188
35.13304
35.17331
35.17735
35.15419
35.10853
35.02298
35.08716
35.08808
35.07148
35.01643
36.82076
36.87976
36.90723
36.91994
36.92505
36.92626
36.92283
36.91507
36.89713
36.86499
36.71146
36.32102
36.47173
36.56071
36.6145
36.6364
36.64169
36.6267
36.59341
36.52625
36.42703
36.19567
35.99311
36.16867
36.27918
36.35407
36.38401
36.39097
36.37171
36.32293
36.23684
36.11136
35.87876
35.75522
35.93162
36.05641
36.1382
36.17146
36.17836
36.15935
36.10248
36.00793
35.86522
35.66356
35.56641
35.73948
35.87085
35.95468
35.99385
36.00014
35.98038
35.91593
35.81533
35.63642
35.48047
35.41594
35.58158
35.71236
35.79707
35.84432
35.85211
35.8267
35.75824
35.64517
35.47765
35.32739
35.25922
35.44669
35.57279
35.65865
35.71127
35.72107
35.68971
35.62281
35.50768
35.34488
35.1509
35.29156
35.44263
35.53865
35.58754
35.5972
35.56609
35.50046
35.38569
35.22918
35.04793
35.17854
35.33189
35.42911
35.47594
35.48337
35.45659
35.38699
35.27081
35.12556
35.0898
35.18663
35.29566
35.34755
35.35545
35.32321
35.25663
35.13221
35.00961
34.99199
35.06674
35.13776
35.14466
35.09335
35.02993
34.90028
34.86691
34.94206
34.94427
34.89709
34.83851
36.69513
36.84688
36.90306
36.92347
36.9355
36.94247
36.94558
36.94623
36.94433
36.93959
36.93039
36.91584
36.88162
36.81266
36.1546
36.35958
36.54881
36.63466
36.68535
36.71678
36.73107
36.73401
36.72539
36.7036
36.66349
36.60147
36.472
36.28931
36.02639
36.26254
36.3865
36.46183
36.50989
36.53194
36.53628
36.52342
36.48933
36.42926
36.3364
36.16344
35.90641
35.79152
36.0332
36.17535
36.268
36.32671
36.35416
36.35926
36.34385
36.30123
36.22773
36.11404
35.92993
35.65729
35.61664
35.84558
35.99497
36.09914
36.16545
36.1982
36.20404
36.1859
36.13634
36.05286
35.92573
35.74483
35.48999
35.46848
35.68332
35.84159
35.95189
36.0235
36.06137
36.06839
36.04669
35.9921
35.90136
35.76823
35.5849
35.36913
35.33019
35.5374
35.70676
35.82163
35.89719
35.93837
35.94641
35.9219
35.86446
35.76903
35.6301
35.41451
35.23374
35.18261
35.41453
35.5828
35.70338
35.78323
35.82519
35.83341
35.80831
35.74887
35.64923
35.50684
35.29539
35.09109
35.29767
35.47068
35.59501
35.6785
35.72128
35.72924
35.70426
35.64223
35.53896
35.38971
35.1912
34.99854
35.16757
35.33924
35.46353
35.55124
35.59581
35.60408
35.5778
35.51309
35.40726
35.26567
35.09771
34.95154
35.11407
35.25156
35.34638
35.39333
35.40274
35.37296
35.30554
35.19465
35.04845
34.93544
35.02967
35.12922
35.18393
35.19843
35.1616
35.09067
34.98132
34.84993
34.81203
34.93167
34.95099
34.95401
34.93518
34.87001
36.85725
36.90699
36.93249
36.94491
36.95219
36.95662
36.95876
36.95917
36.95792
36.95473
36.94899
36.93979
36.92201
36.88948
36.76611
36.34715
36.56641
36.67238
36.72915
36.7631
36.78401
36.79419
36.79616
36.79024
36.77506
36.74817
36.70535
36.62743
36.48823
36.21827
36.04279
36.29084
36.44133
36.53025
36.58534
36.61961
36.63642
36.63962
36.62993
36.60487
36.56106
36.49206
36.37554
36.18459
35.89223
35.80065
36.0701
36.24201
36.35191
36.4232
36.46785
36.49006
36.49423
36.48152
36.44856
36.39163
36.3034
36.16541
35.9525
35.6566
35.62129
35.89005
36.07038
36.19369
36.27699
36.32981
36.35673
36.3618
36.34633
36.30689
36.2398
36.13802
35.9885
35.77074
35.49807
35.48659
35.73625
35.92012
36.05381
36.14573
36.20486
36.23584
36.24178
36.22373
36.17913
36.10438
35.99298
35.83452
35.62314
35.37634
35.35535
35.5937
35.78663
35.92874
36.02721
36.09124
36.12525
36.1319
36.11184
36.06339
35.98279
35.86407
35.69592
35.4846
35.24477
35.195
35.46505
35.66846
35.81519
35.9188
35.98685
36.02287
36.02992
36.00865
35.95725
35.87203
35.74817
35.57569
35.32721
35.09523
35.35515
35.55983
35.71101
35.81842
35.88982
35.92744
35.93473
35.91263
35.85868
35.76984
35.64186
35.46725
35.21989
35.00641
35.20883
35.42958
35.58527
35.69565
35.7705
35.8099
35.81753
35.79438
35.73772
35.64559
35.51456
35.33483
35.11651
35.01071
35.21693
35.38201
35.49746
35.57719
35.61907
35.62742
35.6024
35.54209
35.44537
35.3083
35.11158
34.90491
34.99637
35.16845
35.29132
35.37749
35.42316
35.43204
35.40542
35.3396
35.23932
35.07347
34.88655
34.8158
34.94429
35.0763
35.16583
35.20738
35.21274
35.1939
35.12597
35.01121
34.86107
34.84917
34.92763
34.95366
34.95845
34.94819
34.89296
34.80007
36.83382
36.90771
36.93456
36.94957
36.9581
36.96327
36.96643
36.96801
36.96832
36.9674
36.96507
36.961
36.95443
36.94313
36.92344
36.88355
36.72698
36.34681
36.56677
36.68305
36.75114
36.79139
36.81626
36.83155
36.83925
36.84073
36.83626
36.82497
36.80529
36.77393
36.72158
36.63349
36.48021
36.21112
36.02576
36.29763
36.46193
36.56643
36.63214
36.67402
36.70001
36.71319
36.71571
36.70807
36.68881
36.65548
36.60323
36.52021
36.38935
36.18143
35.89285
35.79964
36.0814
36.2715
36.39931
36.48419
36.54006
36.57512
36.59306
36.59649
36.58609
36.55998
36.51522
36.44632
36.3419
36.18603
35.95488
35.66798
35.6275
35.90242
36.10581
36.24921
36.34863
36.4158
36.45842
36.48051
36.48476
36.4719
36.43997
36.38581
36.30379
36.184
36.01298
35.77517
35.48808
35.46818
35.74619
35.95889
36.11424
36.22518
36.30135
36.35018
36.3758
36.38079
36.36578
36.329
36.26722
36.17485
36.04292
35.86113
35.61611
35.32696
35.29704
35.59484
35.82581
35.99263
36.11262
36.19588
36.24974
36.27825
36.28384
36.26706
36.22634
36.15848
36.05804
35.91603
35.72106
35.43482
35.17465
35.46719
35.70795
35.88284
36.00927
36.09804
36.156
36.18677
36.19281
36.17469
36.13079
36.05809
35.95162
35.80282
35.59758
35.31416
35.09701
35.36085
35.60189
35.78159
35.91325
36.00641
36.06771
36.10032
36.10673
36.08753
36.04102
35.96442
35.8531
35.69925
35.49056
35.2112
35.21207
35.46801
35.65658
35.795
35.89286
35.95776
35.99234
35.99913
35.97878
35.92945
35.84873
35.73184
35.57052
35.35268
35.07759
35.0079
35.24656
35.45301
35.60288
35.70777
35.77789
35.81522
35.82257
35.8006
35.74724
35.66059
35.53492
35.35819
35.12143
34.86855
35.03306
35.25232
35.40494
35.51777
35.59391
35.63364
35.64114
35.61837
35.56064
35.46742
35.33414
35.152
34.91482
34.83029
35.02271
35.189
35.31497
35.39669
35.43531
35.44174
35.42136
35.36106
35.258
35.1201
34.94174
34.77782
34.95039
35.08652
35.17302
35.20938
35.21488
35.19774
35.12998
35.01083
34.88582
34.82564
34.917
34.93595
34.93576
34.9299
34.88436
34.78036
36.78271
36.9072
36.93573
36.95132
36.96114
36.96731
36.97121
36.97363
36.97486
36.9751
36.97438
36.97259
36.96949
36.96459
36.9568
36.94448
36.92422
36.87723
36.27017
36.56563
36.68737
36.7597
36.80618
36.83591
36.85499
36.8668
36.87288
36.87406
36.87052
36.86172
36.84655
36.82277
36.78556
36.72772
36.636
36.46207
35.95253
36.28618
36.46678
36.58146
36.65746
36.70757
36.74036
36.76085
36.77143
36.77348
36.76731
36.75202
36.72582
36.68526
36.62346
36.53024
36.38787
36.15214
35.72491
36.05765
36.27518
36.41974
36.51831
36.58525
36.62994
36.65813
36.67277
36.67562
36.66706
36.64597
36.61007
36.55523
36.47387
36.35465
36.17839
35.90265
35.53119
35.86447
36.10704
36.27333
36.38953
36.47033
36.52517
36.56005
36.57831
36.58187
36.57118
36.54498
36.50072
36.4339
36.33681
36.19794
35.99824
35.68593
35.37096
35.69479
35.95698
36.14039
36.27093
36.36322
36.42659
36.4672
36.48861
36.4928
36.48024
36.44963
36.39827
36.32145
36.21145
36.05685
35.83888
35.52593
35.2605
35.56113
35.82338
36.01989
36.16204
36.26364
36.33405
36.37949
36.40357
36.40831
36.39415
36.3598
36.30253
36.21755
36.0971
35.92986
35.70093
35.39688
35.1466
35.44363
35.70684
35.91122
36.06187
36.17074
36.2469
36.29639
36.32272
36.32791
36.31241
36.27493
36.21275
36.12123
35.99288
35.81697
35.58247
35.28585
35.32439
35.59813
35.81051
35.96821
36.08323
36.16419
36.21711
36.24533
36.2509
36.23429
36.19415
36.12785
36.03084
35.89587
35.71265
35.46609
35.15744
35.19133
35.46266
35.68442
35.85149
35.974
36.06045
36.1172
36.14753
36.15353
36.13568
36.09256
36.02165
35.91819
35.77478
35.58184
35.32839
35.04724
34.96066
35.23986
35.4781
35.66117
35.79521
35.88964
35.95196
35.98526
35.99182
35.97228
35.9249
35.84729
35.73432
35.57693
35.36735
35.0918
35.02757
35.2792
35.47077
35.61298
35.71512
35.78302
35.81879
35.82568
35.80501
35.75357
35.66927
35.54827
35.38154
35.16545
34.88321
34.82132
35.04516
35.25903
35.4165
35.52742
35.60096
35.63817
35.64501
35.62417
35.56912
35.47722
35.34621
35.1616
34.93784
34.80126
35.00984
35.19711
35.31613
35.39568
35.43443
35.44104
35.42045
35.36009
35.26016
35.11583
34.92158
34.76515
34.94813
35.07569
35.1617
35.19897
35.20318
35.18678
35.119
35.00261
34.87883
34.80876
34.89328
34.91953
34.92377
34.91191
34.84602
34.75993
36.71977
36.89071
36.93386
36.95172
36.96239
36.96944
36.97412
36.9772
36.97912
36.98011
36.98031
36.97973
36.97829
36.97584
36.97204
36.96629
36.95764
36.94417
36.91833
36.83853
36.20065
36.50703
36.67751
36.76075
36.81214
36.84638
36.86928
36.8844
36.89387
36.8988
36.89976
36.89688
36.8898
36.8777
36.85906
36.83104
36.78922
36.72498
36.61059
36.36237
35.89216
36.21149
36.44669
36.58114
36.66739
36.72565
36.76515
36.79151
36.80811
36.81678
36.81848
36.81341
36.80097
36.77982
36.74748
36.69946
36.62876
36.52226
36.34722
36.04817
35.67009
35.98165
36.24474
36.41696
36.53137
36.6099
36.66395
36.70043
36.72356
36.73569
36.73807
36.73097
36.7136
36.68423
36.63968
36.57447
36.47987
36.34039
36.12552
35.82239
35.79216
36.07114
36.2686
36.40498
36.50037
36.56698
36.6124
36.64139
36.65666
36.65966
36.65071
36.62889
36.59218
36.53697
36.45716
36.34322
36.17948
35.94167
35.61398
35.63144
35.92168
36.13498
36.2882
36.39754
36.47486
36.52806
36.56221
36.58027
36.58384
36.57323
36.54748
36.50435
36.43994
36.34783
36.21835
36.03738
35.78778
35.45422
35.46053
35.79016
36.01468
36.18069
36.30138
36.3877
36.44757
36.48621
36.50672
36.51077
36.49872
36.46953
36.42086
36.34864
36.24634
36.10456
35.91118
35.64867
35.31049
35.34392
35.67025
35.90512
36.08136
36.21126
36.30511
36.37066
36.41318
36.43582
36.44031
36.427
36.39482
36.34139
36.26257
36.15187
36.00026
35.79649
35.52212
35.19359
35.23697
35.55756
35.80223
35.98794
36.12587
36.22627
36.29676
36.34267
36.36718
36.37204
36.35763
36.32285
36.26527
36.1807
36.06271
35.90239
35.68828
35.4051
35.09634
35.10894
35.42249
35.6746
35.87114
36.01867
36.1268
36.20303
36.25286
36.27951
36.28481
36.26914
36.23134
36.16896
36.07769
35.95101
35.78038
35.55563
35.25168
34.90286
35.17474
35.46695
35.68075
35.84272
35.96228
36.04693
36.10253
36.13228
36.13818
36.12073
36.07853
36.00911
35.908
35.76829
35.58204
35.33706
35.05087
34.96899
35.26385
35.49121
35.66444
35.79434
35.88704
35.94817
35.98066
35.98705
35.96813
35.92183
35.8456
35.73535
35.58433
35.3871
35.10044
34.82363
34.75742
35.03485
35.27826
35.46835
35.61286
35.71457
35.78144
35.81649
35.82326
35.80311
35.75267
35.66912
35.54753
35.38004
35.16571
34.9059
34.78745
35.02839
35.2462
35.40943
35.52087
35.59406
35.63215
35.63928
35.61779
35.56232
35.47077
35.33594
35.14663
34.9262
34.78142
34.99219
35.17487
35.2987
35.37824
35.42038
35.42754
35.40489
35.34287
35.24173
35.09584
34.90286
34.73789
34.90907
35.04036
35.11894
35.17524
35.18275
35.15656
35.0846
34.96827
34.82221
34.76263
34.83535
34.87724
34.88056
34.85577
34.80619
36.69794
36.87385
36.92671
36.94954
36.96217
36.9702
36.97565
36.97936
36.98185
36.98342
36.98424
36.98441
36.98392
36.98275
36.98075
36.9777
36.9732
36.96661
36.95666
36.94004
36.90754
36.7986
36.18501
36.44739
36.64529
36.74977
36.81066
36.85
36.87675
36.89508
36.90739
36.91518
36.91926
36.92006
36.91768
36.91184
36.90195
36.88688
36.86473
36.83238
36.78395
36.70527
36.56513
36.28867
35.86922
36.09843
36.396
36.56128
36.6639
36.73166
36.77815
36.81021
36.83187
36.84562
36.85284
36.85427
36.85004
36.83972
36.82228
36.79584
36.75722
36.70123
36.61844
36.48911
36.2766
35.96557
35.64298
35.87165
36.18322
36.38956
36.52563
36.61783
36.68185
36.72639
36.75669
36.77601
36.78619
36.7882
36.78224
36.76772
36.74326
36.70639
36.65296
36.57627
36.46474
36.29742
36.04237
35.72251
35.68028
36.00458
36.23688
36.39765
36.5099
36.58908
36.64473
36.68287
36.70729
36.7202
36.72276
36.7152
36.69681
36.66595
36.6197
36.55325
36.45905
36.32495
36.13172
35.85102
35.51193
35.53174
35.85257
36.10133
36.28006
36.40844
36.50051
36.56589
36.61102
36.64005
36.65544
36.6585
36.64947
36.62759
36.59098
36.53644
36.45873
36.34997
36.19852
35.98753
35.69651
35.37879
35.40058
35.71428
35.97859
36.17181
36.31333
36.41629
36.49012
36.54141
36.57454
36.59217
36.59567
36.58534
36.56032
36.51862
36.45681
36.36945
36.2486
36.08323
35.85703
35.5572
35.25591
35.25256
35.58861
35.86597
36.07126
36.22384
36.33612
36.41728
36.47399
36.51077
36.53038
36.53429
36.52278
36.49497
36.44878
36.38062
36.28494
36.15385
35.9768
35.73804
35.39897
35.14059
35.47475
35.76123
35.97649
36.13876
36.25924
36.34691
36.40845
36.44849
36.46988
36.47415
36.4616
36.4313
36.38109
36.30728
36.20424
36.06417
35.87699
35.62859
35.29065
35.03514
35.34518
35.63253
35.85844
36.03185
36.1619
36.25723
36.32446
36.36835
36.39184
36.39654
36.38276
36.34952
36.29457
36.21411
36.10245
35.95197
35.75332
35.4962
35.18643
35.11804
35.41937
35.66603
35.85642
36.00047
36.10713
36.18285
36.23251
36.25912
36.26444
36.24886
36.21122
36.1492
36.05886
35.93449
35.76873
35.551
35.27617
34.97226
34.90314
35.20299
35.47362
35.67912
35.83557
35.953
36.03686
36.09203
36.12152
36.1274
36.11019
36.06842
35.9996
35.89983
35.76369
35.58478
35.3467
35.0499
34.9762
35.26529
35.4843
35.65584
35.78613
35.87884
35.93976
35.97221
35.97864
35.95979
35.91372
35.83771
35.72718
35.57668
35.38271
35.13329
34.8268
34.76751
35.01797
35.26272
35.45365
35.5988
35.70113
35.76838
35.80429
35.81135
35.79059
35.73956
35.6557
35.53334
35.36531
35.1507
34.90467
34.76206
35.00597
35.22442
35.3822
35.49562
35.56989
35.61037
35.6182
35.59494
35.53791
35.44494
35.31215
35.12548
34.9031
34.74524
34.95513
35.1246
35.25119
35.33332
35.38092
35.39018
35.36288
35.29834
35.19596
35.05702
34.86897
34.82705
34.94643
35.0481
35.09337
35.10802
35.07847
34.98958
34.89806
34.76371
34.73424
34.80103
34.80635
34.78734
36.69877
36.86134
36.91374
36.94425
36.96002
36.96967
36.97605
36.98045
36.98349
36.98555
36.98687
36.98756
36.98769
36.98729
36.98631
36.98464
36.98213
36.97847
36.97319
36.9654
36.95321
36.93214
36.88817
36.80755
36.1948
36.419
36.5882
36.72448
36.80008
36.84726
36.87871
36.90043
36.91551
36.92575
36.93227
36.9357
36.93638
36.93438
36.92949
36.92124
36.90877
36.89066
36.86459
36.82633
36.76717
36.66821
36.49643
36.30919
35.8859
36.10682
36.31149
36.51983
36.6455
36.72659
36.78143
36.81957
36.84617
36.8643
36.87586
36.88196
36.88318
36.87961
36.87093
36.85631
36.83428
36.80241
36.75677
36.69042
36.5901
36.43031
36.19589
35.9913
35.66154
35.86958
36.08831
36.3375
36.50089
36.61058
36.68625
36.7394
36.77672
36.80227
36.81861
36.82726
36.82898
36.82393
36.81164
36.791
36.76001
36.71544
36.65211
36.5613
36.42783
36.22666
35.95799
35.75984
35.49064
35.64764
35.90325
36.17827
36.36843
36.50096
36.59446
36.66099
36.70806
36.74047
36.76127
36.77231
36.77451
36.76806
36.7524
36.72617
36.68696
36.63094
36.55211
36.44097
36.28238
36.05402
35.75792
35.57731
35.36457
35.49874
35.74987
36.03804
36.24754
36.3982
36.50674
36.58498
36.64079
36.67945
36.70436
36.71759
36.72024
36.7125
36.69374
36.66238
36.61575
36.54957
36.45739
36.32958
36.15181
35.90589
35.60452
35.42331
35.37302
35.61052
35.91005
36.13613
36.30187
36.42317
36.51162
36.57522
36.6195
36.64814
36.6634
36.66646
36.65754
36.63593
36.59995
36.54665
36.47152
36.36786
36.22606
36.03226
35.77049
35.47208
35.29794
35.25278
35.4823
35.79327
36.03289
36.21115
36.34342
36.44082
36.51135
36.56069
36.59272
36.60982
36.61324
36.60325
36.57907
36.5389
36.47965
36.3966
36.28295
36.12932
35.92245
35.64629
35.32183
35.17219
35.122
35.36563
35.68768
35.93648
36.12498
36.26683
36.37219
36.44895
36.50288
36.53798
36.55676
36.56053
36.54956
36.52303
36.47906
36.41444
36.32429
36.20184
36.03812
35.82127
35.53709
35.2105
35.0327
35.24061
35.55827
35.8168
36.01685
36.16979
36.28451
36.36865
36.42805
36.46684
36.48762
36.4918
36.47966
36.45033
36.40183
36.3308
36.23229
36.09957
35.92424
35.69656
35.40229
35.10448
35.01177
35.34714
35.6203
35.83914
36.00879
36.13731
36.23254
36.30023
36.34463
36.36847
36.37328
36.35937
36.32577
36.27037
36.18968
36.07873
35.93083
35.73737
35.49199
35.17063
35.10861
35.41917
35.65911
35.84459
35.9859
36.0917
36.16735
36.21712
36.24384
36.24923
36.23367
36.19601
36.134
36.04406
35.9214
35.75951
35.54735
35.28264
34.95061
34.89003
35.19302
35.46455
35.6662
35.82144
35.93878
36.02283
36.0782
36.10794
36.11393
36.09664
36.05473
35.98581
35.88595
35.75041
35.57368
35.34147
35.04744
34.96564
35.24737
35.46537
35.63662
35.76664
35.85973
35.92123
35.95443
35.96111
35.94181
35.89514
35.81872
35.70817
35.55808
35.36452
35.11982
34.81889
34.73521
34.98968
35.23486
35.42408
35.56702
35.67012
35.73858
35.77609
35.78364
35.76178
35.70943
35.62457
35.50305
35.33724
35.12364
34.87581
34.71484
34.95797
35.16857
35.32879
35.44369
35.52064
35.56391
35.57266
35.54738
35.48774
35.39309
35.25731
35.07491
34.8607
34.86635
35.04555
35.16723
35.25607
35.30768
35.31771
35.28891
35.21764
35.10877
34.9535
34.74129
34.73804
34.85014
34.93604
35.01352
35.02149
34.9691
34.90296
34.80772
36.75736
36.86599
36.90883
36.93473
36.95574
36.9677
36.97539
36.98062
36.98426
36.98681
36.98855
36.98966
36.99025
36.99037
36.99003
36.98919
36.98779
36.98568
36.98263
36.97827
36.97197
36.96246
36.947
36.92071
36.89191
36.82047
36.6655
36.22524
36.4315
36.57181
36.68049
36.7794
36.8376
36.87544
36.90126
36.91933
36.93198
36.94064
36.94618
36.94911
36.9497
36.948
36.94384
36.93685
36.92635
36.91122
36.88967
36.85855
36.81197
36.73758
36.61973
36.51052
36.32651
35.90535
36.12187
36.29629
36.45134
36.61093
36.7099
36.77565
36.82099
36.8529
36.87534
36.89072
36.90057
36.9058
36.90685
36.90381
36.89641
36.88399
36.86535
36.83858
36.80059
36.74619
36.66598
36.54188
36.3624
36.21701
36.00609
35.67449
35.88957
36.07368
36.25319
36.45575
36.58797
36.67818
36.74134
36.78615
36.81782
36.83962
36.85361
36.86104
36.86253
36.85821
36.8477
36.83008
36.80372
36.76601
36.71286
36.63757
36.52875
36.36639
36.14784
35.98888
35.77183
35.49219
35.70845
35.88834
36.08323
36.31549
36.47362
36.58447
36.66339
36.71995
36.76019
36.788
36.8059
36.81542
36.81733
36.8118
36.79834
36.77582
36.74225
36.69449
36.6277
36.53431
36.40219
36.21165
35.96703
35.80458
35.59177
35.36857
35.55538
35.7314
35.93649
36.18866
36.367
36.4951
36.58777
36.65488
36.70295
36.73633
36.75788
36.76936
36.77168
36.765
36.74878
36.72171
36.68151
36.62463
36.54575
36.43687
36.28584
36.07456
35.81431
35.64366
35.45981
35.40583
35.59759
35.80535
36.07239
36.26734
36.41005
36.5147
36.59122
36.6464
36.68489
36.70983
36.72313
36.72582
36.71808
36.69931
36.66804
36.62178
36.55669
36.46714
36.34494
36.17813
35.9502
35.68129
35.5082
35.31751
35.28277
35.47406
35.68591
35.96546
36.17388
36.32894
36.44409
36.52902
36.59063
36.63381
36.66186
36.67686
36.67989
36.67117
36.65003
36.6149
36.56313
36.49065
36.39165
36.25797
36.0781
35.83674
35.55808
35.38677
35.19243
35.18206
35.35545
35.57677
35.86644
36.08557
36.25114
36.37557
36.46807
36.53555
36.58303
36.61396
36.63052
36.63388
36.62425
36.60092
36.56225
36.50543
36.42625
36.31881
36.17512
35.9845
35.73271
35.44528
35.25288
35.10797
35.05678
35.21575
35.44563
35.74371
35.97487
36.15261
36.28797
36.38946
36.46397
36.51662
36.55103
36.5695
36.57325
36.56252
36.53655
36.4936
36.43071
36.34355
36.22611
36.07072
35.86785
35.60474
35.31024
35.14549
35.01278
35.23264
35.54049
35.79186
35.98884
36.1408
36.25584
36.34104
36.40165
36.44144
36.46285
36.46721
36.45478
36.42473
36.37518
36.30301
36.20376
36.0713
35.89784
35.67509
35.39169
35.08624
34.93796
35.01468
35.32386
35.60395
35.82151
35.98948
36.11729
36.2127
36.28094
36.32588
36.35009
36.35504
36.341
36.30705
36.25117
36.17012
36.0594
35.91275
35.72099
35.4756
35.14685
34.87131
35.08112
35.40005
35.6408
35.82537
35.96654
36.0727
36.14891
36.19921
36.22635
36.2319
36.21617
36.17815
36.11569
36.02532
35.90255
35.74117
35.52983
35.26255
34.91278
34.86705
35.17101
35.43816
35.64046
35.79643
35.91437
35.99923
36.05544
36.0859
36.09213
36.07446
36.03189
35.96223
35.86174
35.72562
35.54805
35.31651
35.02716
34.92043
35.19978
35.42485
35.59836
35.72983
35.82456
35.88755
35.922
35.92906
35.90901
35.86108
35.7832
35.67119
35.51947
35.32217
35.04389
34.76494
34.91476
35.16017
35.35846
35.5092
35.61606
35.68722
35.72672
35.73481
35.71179
35.65716
35.56951
35.44206
35.26801
35.02594
34.75663
34.85956
35.0713
35.24307
35.36393
35.44532
35.49177
35.50083
35.47432
35.41046
35.31148
35.16444
34.9619
34.72393
34.73984
34.92681
35.0652
35.153
35.20907
35.21625
35.18796
35.10889
34.99009
34.84402
34.74443
34.81926
34.87119
34.85688
34.85557
34.77828
36.80117
36.87368
36.9101
36.93158
36.94838
36.96412
36.97362
36.97992
36.98428
36.98735
36.98952
36.99101
36.99197
36.99248
36.99258
36.99229
36.99157
36.99037
36.98856
36.98598
36.98232
36.9771
36.96942
36.95742
36.93892
36.92228
36.89408
36.84963
36.69122
36.27376
36.44199
36.57868
36.66793
36.74437
36.82015
36.86669
36.8978
36.91941
36.93469
36.94547
36.95289
36.95766
36.96019
36.9607
36.95924
36.95567
36.94967
36.94071
36.92787
36.90972
36.88388
36.84607
36.78761
36.70078
36.62808
36.51788
36.33691
36.18205
35.92322
36.13616
36.30868
36.43527
36.55364
36.68012
36.76043
36.8149
36.85304
36.88012
36.89929
36.91251
36.92101
36.92553
36.92645
36.92384
36.91746
36.90678
36.89082
36.86802
36.83591
36.79046
36.72466
36.62504
36.48511
36.37727
36.22901
36.02523
35.67808
35.89911
36.09003
36.23627
36.38179
36.54791
36.65727
36.73283
36.78632
36.82457
36.85176
36.87055
36.88266
36.8891
36.89041
36.88669
36.87761
36.86241
36.83974
36.80747
36.76226
36.69882
36.60827
36.47456
36.29647
36.16839
36.00105
35.77948
35.49105
35.71415
35.91002
36.06566
36.22921
36.42527
36.55869
36.65272
36.72015
36.76875
36.80347
36.82756
36.8431
36.85139
36.85308
36.84829
36.83663
36.81713
36.78813
36.74701
36.68977
36.61025
36.49854
36.33773
36.13241
35.99256
35.81815
35.59303
35.34913
35.56693
35.7548
35.91714
36.09367
36.31207
36.4652
36.5752
36.65509
36.71316
36.75489
36.78394
36.80274
36.81278
36.81482
36.80902
36.79491
36.77136
36.73644
36.68715
36.61902
36.52534
36.39576
36.21363
35.98885
35.83991
35.66397
35.45325
35.258
35.41556
35.61889
35.78712
35.97179
36.20718
36.37662
36.50043
36.59141
36.65808
36.70627
36.73996
36.76181
36.7735
36.77589
36.76913
36.75272
36.72538
36.68496
36.6282
36.55026
36.44415
36.29942
36.10021
35.8619
35.70713
35.52468
35.34
35.29718
35.49882
35.66954
35.86047
36.10949
36.2925
36.42827
36.52913
36.60362
36.65775
36.69574
36.72045
36.73369
36.7364
36.72875
36.71018
36.67931
36.63382
36.57021
36.48345
36.36639
36.20879
35.99567
35.74652
35.58818
35.40441
35.20496
35.19139
35.37856
35.55913
35.75745
36.01762
36.21206
36.35832
36.46807
36.5497
36.60931
36.6513
36.67868
36.69338
36.69639
36.68791
36.66731
36.63315
36.58296
36.51308
36.41831
36.2915
36.12282
35.89824
35.63944
35.47372
35.26925
35.10227
35.07972
35.2386
35.42779
35.63111
35.9028
36.11029
36.2689
36.38927
36.47946
36.54571
36.59257
36.62322
36.63971
36.64309
36.63358
36.61052
36.57233
36.51644
36.439
36.33464
36.19626
36.01469
35.77742
35.50988
35.3406
35.16599
35.04649
35.21656
35.42578
35.71209
35.9406
36.11856
36.2552
36.3585
36.43497
36.48941
36.52519
36.54448
36.54846
36.53735
36.51041
36.46596
36.40123
36.31217
36.19314
36.03688
35.83482
35.5777
35.30066
35.12485
34.95781
34.99892
35.20969
35.51166
35.76599
35.9638
36.11616
36.23192
36.31818
36.3799
36.42059
36.44259
36.44713
36.43448
36.40382
36.35336
36.28016
36.18001
36.04703
35.87308
35.64862
35.3639
35.07149
34.91386
34.98557
35.29509
35.57834
35.79647
35.96491
36.09359
36.19004
36.25932
36.30511
36.3299
36.33503
36.32078
36.28626
36.22956
36.14753
36.03587
35.88853
35.69639
35.44942
35.11721
34.82592
35.05039
35.36942
35.60779
35.79377
35.93672
36.04444
36.12202
36.17343
36.20135
36.20714
36.19107
36.15226
36.08868
35.99693
35.87253
35.70936
35.49788
35.23268
34.8851
34.80067
35.12528
35.38577
35.59315
35.75315
35.87416
35.96136
36.01925
36.05084
36.0574
36.03917
35.99535
35.92384
35.82073
35.68118
35.49891
35.26215
34.97434
34.85713
35.12095
35.35149
35.53264
35.67087
35.76975
35.83525
35.87122
35.87866
35.85788
35.80809
35.72723
35.60968
35.45081
35.24484
34.98425
34.68873
34.83734
35.06774
35.26636
35.42669
35.5392
35.61336
35.65454
35.6628
35.63926
35.58231
35.49105
35.355
35.17434
34.94776
34.7052
34.73323
34.95199
35.13851
35.26159
35.34445
35.3909
35.39858
35.37407
35.3089
35.20872
35.05673
34.86666
34.80487
34.92475
35.01947
35.07019
35.07448
35.05094
34.96587
34.87008
34.70963
34.75133
34.7651
36.75738
36.87367
36.9106
36.932
36.94592
36.95809
36.97052
36.9783
36.98357
36.98727
36.9899
36.99177
36.99306
36.99389
36.99433
36.99443
36.99417
36.99355
36.99251
36.99095
36.98873
36.98562
36.98121
36.97484
36.96515
36.95112
36.9397
36.92252
36.89541
36.8375
36.22534
36.44199
36.5802
36.67115
36.73371
36.79102
36.85145
36.88978
36.91589
36.93425
36.94734
36.95664
36.96307
36.96722
36.96943
36.96989
36.96862
36.96552
36.96033
36.95258
36.94154
36.92605
36.90421
36.87275
36.82521
36.75794
36.70535
36.63025
36.51873
36.34437
35.9055
36.13625
36.31311
36.44227
36.53813
36.63109
36.73404
36.80084
36.84681
36.87934
36.90262
36.91919
36.93067
36.93808
36.94203
36.94285
36.94058
36.93504
36.92577
36.91195
36.8923
36.8648
36.82621
36.77105
36.68892
36.57694
36.49396
36.3828
36.23214
36.01687
35.67468
35.89924
36.09498
36.24617
36.36361
36.48277
36.6211
36.71327
36.77757
36.82346
36.85646
36.88004
36.89641
36.90698
36.91263
36.9138
36.91056
36.90265
36.88942
36.86974
36.84183
36.80293
36.74869
36.67199
36.55988
36.41282
36.30889
36.17574
36.00374
35.77704
35.49238
35.71427
35.91533
36.07775
36.20909
36.34743
36.51422
36.62829
36.70908
36.76732
36.80948
36.83971
36.86075
36.87437
36.88166
36.88316
36.87899
36.8688
36.85177
36.8265
36.79078
36.74123
36.67271
36.57697
36.43975
36.26573
36.14733
36.00134
35.82042
35.59317
35.36871
35.56701
35.76326
35.93077
36.07184
36.22447
36.41383
36.5465
36.64193
36.71142
36.76208
36.79858
36.82406
36.84058
36.84943
36.85127
36.8462
36.83383
36.8132
36.78264
36.7396
36.68025
36.59886
36.48656
36.32866
36.13402
36.00504
35.85104
35.66899
35.45689
35.41562
35.62683
35.80124
35.94945
36.11236
36.31959
36.46801
36.57634
36.65603
36.71454
36.75691
36.78657
36.80586
36.8162
36.81834
36.81242
36.79799
36.77394
36.73841
36.68857
36.62025
36.52734
36.40068
36.22577
36.01559
35.8791
35.71828
35.52858
35.32952
35.29729
35.50966
35.6859
35.83844
36.00906
36.23074
36.39258
36.51232
36.60125
36.66699
36.71482
36.74843
36.77033
36.78208
36.78452
36.7778
36.7614
36.73413
36.69395
36.63781
36.56128
36.45805
36.31892
36.12985
35.90751
35.76579
35.60182
35.41079
35.20226
35.1916
35.39995
35.57861
35.7354
35.91259
36.14623
36.31969
36.44963
36.547
36.61942
36.67234
36.70966
36.73403
36.74713
36.74986
36.74237
36.72412
36.6938
36.64926
36.58727
36.50321
36.39064
36.2405
36.03945
35.80706
35.66058
35.49313
35.30008
35.1018
35.08011
35.27848
35.45194
35.60985
35.79312
36.03979
36.2267
36.36879
36.47631
36.55683
36.61599
36.65787
36.6853
36.70008
36.70316
36.69472
36.67416
36.6401
36.59022
36.5211
36.42792
36.30416
36.14107
35.92647
35.68376
35.53382
35.36943
35.17881
35.05844
35.23315
35.4023
35.59687
35.86252
36.07033
36.23128
36.35449
36.44756
36.51646
36.56553
36.59782
36.61527
36.61893
36.60898
36.58476
36.54477
36.48651
36.40631
36.29906
36.15796
35.97468
35.73949
35.48098
35.32148
35.13857
34.96384
35.01753
35.18394
35.39366
35.67869
35.90903
36.0887
36.22699
36.33205
36.41028
36.46628
36.50326
36.5233
36.52751
36.5161
36.48836
36.44266
36.37634
36.28554
36.16482
36.00688
35.80287
35.54489
35.26902
35.09449
34.91276
34.95455
35.17513
35.47979
35.73525
35.93397
36.08768
36.20508
36.29299
36.35615
36.39796
36.42067
36.42546
36.41254
36.38115
36.32955
36.25488
36.15311
36.01859
35.84348
35.61799
35.33183
35.03197
34.85856
34.94892
35.2597
35.54048
35.75902
35.92951
36.06055
36.15915
36.2302
36.27732
36.30296
36.30837
36.29378
36.25837
36.20026
36.11636
36.00247
35.8528
35.65928
35.41241
35.08322
34.78844
35.00296
35.3107
35.55412
35.74424
35.89117
36.0023
36.0825
36.13572
36.16474
36.17087
36.15431
36.11426
36.04864
35.95397
35.8259
35.65858
35.4429
35.16338
34.83574
34.73169
35.01956
35.31017
35.52311
35.6887
35.81518
35.90626
35.96658
35.99955
36.00647
35.98763
35.94214
35.86775
35.75994
35.61474
35.4271
35.18368
34.88886
34.71239
35.00096
35.25643
35.44488
35.59033
35.69403
35.76241
35.79991
35.80767
35.7863
35.73448
35.6502
35.52641
35.36011
35.1483
34.8942
34.68229
34.93734
35.155
35.31942
35.43634
35.51437
35.55721
35.56566
35.54168
35.48206
35.38734
35.24581
35.06132
34.81463