/*--------------------------------*- C++ -*----------------------------------*\
| =========                 |                                                 |
| \\      /  F ield         | OpenFOAM: The Open Source CFD Toolbox           |
|  \\    /   O peration     | Version:  5.x                                   |
|   \\  /    A nd           | Web:      www.OpenFOAM.org                      |
|    \\/     M anipulation  |                                                 |
\*---------------------------------------------------------------------------*/
FoamFile
{
    version     2.0;
    format      ascii;
    class       volScalarField;
    location    "30/gland";
    object      T;
}
// * * * * * * * * * * * * * * * * * * * * * * * * * * * * * * * * * * * * * //

dimensions      [0 0 0 1 0 0 0];

internalField   nonuniform List<scalar> 
202400
(
36.66662
36.73363
36.73332
36.72027
36.15653
36.19654
36.19446
36.1827
35.87859
35.87279
35.86127
35.65372
35.64391
35.64184
35.47056
35.48758
36.76531
36.84167
36.87369
36.88642
36.88845
36.88087
36.86172
36.80688
36.67262
36.18393
36.34833
36.44586
36.48442
36.4926
36.46251
36.41291
36.28634
35.85375
35.99066
36.13571
36.17568
36.18547
36.15315
36.08665
35.96547
35.61733
35.75376
35.89859
35.93395
35.94461
35.91938
35.84571
35.72438
35.46827
35.58023
35.69844
35.74071
35.74726
35.73009
35.64268
35.54402
35.31707
35.43398
35.52652
35.58286
35.58897
35.56427
35.45876
35.37302
35.2909
35.35351
35.44019
35.4482
35.41318
35.32872
35.20724
35.16218
35.23381
35.30438
35.31304
35.25629
35.20789
35.11565
35.04874
35.12364
35.15883
35.16118
35.14069
35.09961
35.00335
35.06948
35.06759
35.05223
34.99012
36.82136
36.87993
36.90803
36.92068
36.92572
36.92684
36.92346
36.91595
36.89755
36.86542
36.71433
36.32248
36.47248
36.56418
36.61818
36.63952
36.64437
36.62984
36.59748
36.5281
36.42866
36.19838
35.99554
36.17003
36.28397
36.36006
36.38866
36.39484
36.37679
36.32901
36.23958
36.11325
35.88389
35.75505
35.93376
36.06101
36.1448
36.17614
36.18213
36.16487
36.10872
36.01104
35.86648
35.66171
35.56726
35.74194
35.87422
35.96006
35.99745
36.00287
35.98496
35.92062
35.81804
35.63792
35.47777
35.41611
35.58287
35.71408
35.80016
35.84626
35.85334
35.82937
35.76055
35.64675
35.4779
35.32264
35.25749
35.44514
35.57238
35.65876
35.71063
35.71993
35.68948
35.62246
35.50725
35.34275
35.14523
35.28638
35.43854
35.53472
35.58272
35.59197
35.56146
35.49648
35.38122
35.22445
35.03431
35.16708
35.32195
35.42018
35.46612
35.4729
35.44697
35.37762
35.26022
35.11234
35.07041
35.16942
35.28049
35.33314
35.34034
35.30822
35.23978
35.11514
34.98795
34.97123
35.04604
35.11848
35.12526
35.07252
35.00903
34.87584
34.84016
34.91595
34.91899
34.86968
34.8112
36.69484
36.84758
36.90322
36.92359
36.93583
36.94285
36.94591
36.94652
36.94468
36.93998
36.93059
36.91597
36.88195
36.81194
36.15669
36.3621
36.54951
36.63521
36.68684
36.71857
36.73256
36.73534
36.727
36.70539
36.66441
36.60204
36.47322
36.28908
36.02938
36.2633
36.38729
36.46393
36.5126
36.5341
36.53817
36.52583
36.49194
36.43056
36.33703
36.16486
35.90829
35.79166
36.03322
36.17611
36.27001
36.32951
36.35627
36.36102
36.34631
36.30382
36.22897
36.11432
35.92974
35.66103
35.61405
35.8447
35.99522
36.10037
36.16745
36.19952
36.20501
36.1876
36.13805
36.05349
35.92532
35.74286
35.4872
35.46461
35.68113
35.84062
35.95174
36.02394
36.06128
36.06799
36.04691
35.99224
35.90073
35.76652
35.58141
35.3659
35.32418
35.53314
35.70372
35.81947
35.89545
35.93622
35.94401
35.91995
35.86245
35.76641
35.62632
35.40914
35.22615
35.17495
35.4069
35.57677
35.69841
35.77867
35.8203
35.8283
35.80353
35.74406
35.6437
35.49994
35.28632
35.07265
35.28517
35.46083
35.58655
35.67068
35.7133
35.72105
35.69629
35.63401
35.52979
35.37842
35.17561
34.9753
35.14992
35.32456
35.45057
35.53918
35.58409
35.59219
35.56584
35.50037
35.39355
35.24975
35.07905
34.93419
35.09552
35.23358
35.32887
35.37635
35.3858
35.35548
35.28762
35.17578
35.02864
34.91125
35.00685
35.10611
35.1612
35.17603
35.13836
35.06739
34.95778
34.825
34.78062
34.90143
34.92329
34.9258
34.90542
34.83949
36.85762
36.90716
36.93254
36.94496
36.95231
36.95678
36.95889
36.95929
36.95807
36.95488
36.94906
36.93981
36.9221
36.88954
36.7678
36.34933
36.56709
36.67254
36.72932
36.76364
36.78473
36.79479
36.79669
36.79089
36.77573
36.74846
36.70544
36.62775
36.48884
36.2245
36.04485
36.2915
36.44134
36.53037
36.58604
36.6206
36.63721
36.64029
36.63082
36.60575
36.56138
36.492
36.37567
36.18556
35.89601
35.80249
36.06991
36.24146
36.35172
36.42365
36.46867
36.49062
36.49465
36.48221
36.44922
36.39165
36.30289
36.16476
35.95313
35.66156
35.62199
35.88844
36.06892
36.19283
36.27675
36.32994
36.3566
36.36152
36.34632
36.30682
36.23913
36.13671
35.98663
35.76975
35.49821
35.48503
35.733
35.91736
36.05183
36.14436
36.20381
36.23456
36.24036
36.22255
36.17787
36.10258
35.99044
35.83115
35.62024
35.3748
35.3517
35.58834
35.78205
35.92514
36.02427
36.08858
36.12242
36.12894
36.10906
36.06052
35.9794
35.85981
35.69056
35.47931
35.2422
35.18793
35.45685
35.66147
35.80947
35.91386
35.98223
36.01813
36.02507
36.00392
35.95238
35.86657
35.74164
35.56765
35.31854
35.07989
35.34296
35.54998
35.70281
35.81115
35.88296
35.92057
35.92777
35.9057
35.8515
35.76197
35.63267
35.45596
35.20582
34.98452
35.19313
35.41641
35.57382
35.68522
35.76061
35.80018
35.80776
35.78449
35.72739
35.63448
35.50209
35.32023
35.09743
34.99657
35.2011
35.36637
35.48245
35.56258
35.60476
35.61313
35.58778
35.52706
35.42971
35.29199
35.09625
34.88866
34.97501
35.14788
35.27167
35.35801
35.40406
35.41303
35.38591
35.31976
35.219
35.05198
34.8673
34.78825
34.91731
35.05083
35.14036
35.18346
35.18882
35.16873
35.10029
34.98513
34.83625
34.82041
34.89464
34.92615
34.92903
34.91409
34.86067
34.76722
36.83627
36.90804
36.93461
36.94955
36.95809
36.96329
36.96647
36.96805
36.96834
36.96743
36.9651
36.96099
36.9544
36.94313
36.92354
36.88442
36.72668
36.35407
36.56816
36.68324
36.75101
36.79128
36.81633
36.83171
36.83938
36.84083
36.8364
36.82508
36.80522
36.77374
36.72151
36.63395
36.48356
36.21732
36.03468
36.29933
36.46198
36.56604
36.63181
36.67398
36.70014
36.71325
36.71572
36.70815
36.68884
36.65521
36.60274
36.51985
36.38983
36.18536
35.90353
35.80566
36.08274
36.27101
36.3984
36.48344
36.53967
36.57494
36.5928
36.59618
36.58585
36.55966
36.51454
36.44533
36.34095
36.18606
35.95807
35.67755
35.6304
35.90276
36.10439
36.24752
36.3472
36.41477
36.45762
36.47963
36.48382
36.47103
36.43899
36.38445
36.30204
36.18213
36.01202
35.77666
35.49949
35.47041
35.74507
35.95619
36.11147
36.22279
36.29937
36.34843
36.374
36.37891
36.36395
36.32704
36.26487
36.17205
36.03983
35.85873
35.61604
35.33656
35.29881
35.59179
35.82145
35.98847
36.10897
36.19267
36.24676
36.27523
36.28074
36.26399
36.22313
36.15487
36.05389
35.91139
35.71677
35.43312
35.17585
35.46159
35.70158
35.87701
36.00411
36.09337
36.15156
36.18232
36.1883
36.17016
36.12609
36.05297
35.94586
35.79631
35.59093
35.31015
35.08728
35.35198
35.59332
35.77391
35.9064
36.0001
36.06167
36.09431
36.10065
36.0814
36.03467
35.95762
35.84553
35.69072
35.48124
35.20298
35.20028
35.45717
35.64654
35.78583
35.88428
35.9495
35.98417
35.99092
35.97045
35.92082
35.83958
35.72189
35.5596
35.34072
35.06594
34.99747
35.23389
35.43989
35.5901
35.69544
35.76583
35.80332
35.81065
35.78846
35.73477
35.64764
35.52144
35.34469
35.1082
34.86923
35.01642
35.23535
35.3882
35.50148
35.57782
35.6178
35.62532
35.6022
35.54411
35.45048
35.31672
35.13471
34.89796
34.80783
35.00143
35.16801
35.29418
35.37589
35.4153
35.42181
35.40061
35.33986
35.23657
35.09913
34.91981
34.7557
34.9285
35.06187
35.14678
35.18543
35.19084
35.1716
35.10352
34.98528
34.86322
34.79733
34.88605
34.90919
34.90796
34.89981
34.85126
34.75225
36.78563
36.908
36.93593
36.95133
36.96109
36.96726
36.97119
36.97361
36.97485
36.97508
36.97436
36.97257
36.96944
36.96453
36.95677
36.94454
36.92465
36.87824
36.27923
36.56914
36.68828
36.75972
36.80594
36.83567
36.85484
36.86671
36.87277
36.87393
36.8704
36.86157
36.8463
36.82245
36.78534
36.72797
36.63789
36.46691
35.9649
36.29121
36.46801
36.5813
36.65692
36.70705
36.73999
36.76058
36.77114
36.77316
36.767
36.75165
36.72529
36.68459
36.62292
36.53046
36.39046
36.15975
35.74026
36.06283
36.27623
36.41918
36.5173
36.58431
36.62921
36.65753
36.67215
36.67496
36.66641
36.64522
36.60909
36.55407
36.47282
36.35451
36.18089
35.91162
35.54749
35.86903
36.10748
36.27209
36.38786
36.46878
36.52387
36.55891
36.57716
36.58068
36.56998
36.54366
36.49912
36.43205
36.33503
36.19709
36.00003
35.69553
35.3873
35.69859
35.95643
36.13821
36.2684
36.36086
36.42451
36.4653
36.4867
36.49085
36.47826
36.4475
36.39584
36.31872
36.2087
36.05497
35.83963
35.53496
35.27477
35.56369
35.82151
36.01654
36.15846
36.26028
36.33099
36.37662
36.40071
36.4054
36.39119
36.35667
36.29908
36.21375
36.0932
35.92667
35.70031
35.40406
35.15325
35.44378
35.70334
35.90654
36.0571
36.16625
36.24271
36.29239
36.31873
36.32388
36.30831
36.27064
36.20813
36.11624
35.98768
35.81225
35.57999
35.2891
35.32094
35.59286
35.80443
35.96217
36.07751
36.15877
36.21187
36.24012
36.24564
36.22894
36.18859
36.12197
36.02456
35.8893
35.70633
35.46132
35.15521
35.18644
35.45581
35.67666
35.84377
35.96661
36.05335
36.11028
36.14065
36.14659
36.12862
36.08529
36.01404
35.91017
35.76646
35.57374
35.32227
35.04533
34.95559
35.23195
35.46805
35.65078
35.78497
35.87959
35.94203
35.97538
35.9819
35.96219
35.91458
35.83668
35.7234
35.56599
35.35713
35.08652
35.01647
35.26592
35.45735
35.59967
35.70194
35.76992
35.80579
35.81265
35.79171
35.74001
35.65547
35.53424
35.36741
35.15181
34.87316
34.81061
35.02844
35.24246
35.40007
35.5108
35.58427
35.62185
35.62871
35.60735
35.55195
35.46002
35.32914
35.144
34.92373
34.78377
34.99066
35.17844
35.29615
35.37504
35.41476
35.42143
35.39981
35.33899
35.23983
35.09631
34.90191
34.74911
34.92689
35.0523
35.13746
35.17626
35.1801
35.16293
35.09363
34.97881
34.85632
34.78204
34.86686
34.8934
34.895
34.88585
34.81663
34.73282
36.72514
36.89224
36.93436
36.95186
36.96238
36.96939
36.97407
36.97715
36.97908
36.98007
36.98026
36.97968
36.97824
36.97578
36.97197
36.96624
36.95768
36.94444
36.91913
36.84177
36.21692
36.5137
36.67988
36.76139
36.81209
36.84612
36.869
36.88416
36.89366
36.89857
36.89952
36.89664
36.88953
36.87739
36.85871
36.83077
36.78935
36.72624
36.61435
36.37399
35.91381
36.22148
36.45037
36.58207
36.6672
36.72513
36.76461
36.79103
36.80767
36.81632
36.818
36.81292
36.80044
36.7792
36.74679
36.6989
36.62884
36.52414
36.35315
36.06383
35.69292
35.99338
36.24907
36.41787
36.53088
36.609
36.66304
36.69962
36.72281
36.73491
36.73726
36.73014
36.71271
36.68321
36.63856
36.57349
36.4797
36.34243
36.1327
35.83891
35.80456
36.07548
36.26917
36.40399
36.49895
36.56557
36.61112
36.64019
36.65543
36.65839
36.64942
36.62751
36.59064
36.53528
36.4556
36.34254
36.18124
35.94924
35.6301
35.6437
35.92554
36.13492
36.28654
36.39544
36.47281
36.52617
36.56041
36.57847
36.58198
36.57133
36.54546
36.50213
36.43753
36.34552
36.21694
36.0385
35.79492
35.47171
35.47122
35.793
36.01377
36.17821
36.29848
36.38488
36.44492
36.48367
36.50418
36.50819
36.49606
36.46672
36.41782
36.34538
36.24316
36.10225
35.91134
35.65439
35.32722
35.35133
35.67152
35.90319
36.07797
36.20747
36.3014
36.36712
36.40976
36.43242
36.43685
36.42345
36.3911
36.33742
36.25836
36.14773
35.99693
35.79539
35.5255
35.20428
35.24056
35.55704
35.79923
35.98361
36.12116
36.22161
36.29226
36.33828
36.3628
36.36761
36.35309
36.31812
36.26029
36.17551
36.05759
35.89801
35.68583
35.40579
35.10247
35.10645
35.42043
35.67039
35.86561
36.01275
36.12088
36.19722
36.24714
36.2738
36.27902
36.26323
36.22524
36.16264
36.0712
35.94459
35.77469
35.55189
35.24976
34.89599
35.17061
35.46111
35.67327
35.83471
35.95415
36.03881
36.09441
36.12416
36.12999
36.11238
36.07
36.00041
35.89923
35.7597
35.57432
35.33173
35.04634
34.96237
35.25562
35.48134
35.65416
35.78392
35.87653
35.9376
35.97009
35.9764
35.95727
35.91078
35.83446
35.72419
35.57328
35.37685
35.09226
34.81437
34.74948
35.0251
35.26607
35.45572
35.60014
35.70155
35.76827
35.80341
35.81012
35.78963
35.73896
35.65545
35.53397
35.36645
35.15361
34.89691
34.77658
35.01477
35.23159
35.39458
35.50527
35.57809
35.61651
35.62361
35.60157
35.54575
35.45461
35.32021
35.13123
34.91273
34.76633
34.97702
35.15789
35.28032
35.35947
35.4022
35.40919
35.38601
35.32326
35.22288
35.07819
34.8877
34.72147
34.88997
35.01904
35.0974
35.15448
35.16147
35.13513
35.06203
34.94607
34.80341
34.73706
34.81018
34.85539
34.85793
34.83058
34.78037
36.70861
36.87642
36.92769
36.94991
36.96227
36.9702
36.97561
36.97931
36.9818
36.98337
36.98419
36.98435
36.98387
36.98269
36.98068
36.97764
36.97316
36.96663
36.95686
36.94063
36.90909
36.80413
36.20893
36.45823
36.64989
36.75154
36.81117
36.84997
36.87654
36.89482
36.90713
36.91491
36.91898
36.91977
36.91738
36.91152
36.90161
36.88655
36.86448
36.83247
36.78486
36.70806
36.57219
36.30516
35.89911
36.11564
36.40337
36.56416
36.66467
36.73155
36.77773
36.8097
36.83136
36.84511
36.85231
36.85371
36.84947
36.83912
36.82164
36.79521
36.75673
36.70129
36.61988
36.49364
36.28762
35.98917
35.67218
35.89195
36.19237
36.39312
36.52648
36.61753
36.68115
36.72559
36.7559
36.77521
36.78536
36.78734
36.78135
36.76679
36.74227
36.7054
36.65214
36.57614
36.46642
36.30306
36.05569
35.75015
35.70223
36.01458
36.24067
36.39833
36.50927
36.588
36.64356
36.68171
36.70613
36.719
36.72151
36.71391
36.69547
36.66454
36.61826
36.552
36.45858
36.32654
36.13782
35.86547
35.53942
35.55285
35.86262
36.10493
36.28037
36.40734
36.49894
36.56425
36.6094
36.63844
36.65379
36.65679
36.64772
36.62575
36.58905
36.53444
36.45691
36.34899
36.19974
35.99347
35.71114
35.39769
35.42154
35.7235
35.98161
36.17158
36.31164
36.41413
36.4879
36.53923
36.57239
36.58998
36.59342
36.58301
36.55789
36.51606
36.45416
36.36696
36.24698
36.08383
35.86218
35.57103
35.27797
35.27236
35.59613
35.8681
36.0704
36.22151
36.33328
36.41438
36.47115
36.50797
36.52755
36.53139
36.51979
36.49185
36.44549
36.37722
36.28171
36.15152
35.97662
35.74188
35.41055
35.15813
35.48018
35.76233
35.97495
36.13577
36.2557
36.34328
36.40487
36.44495
36.46632
36.47051
36.45785
36.42739
36.377
36.30309
36.20026
36.0611
35.87594
35.63089
35.29946
35.05003
35.34859
35.63242
35.85603
36.02801
36.15745
36.25261
36.31985
36.36377
36.38724
36.39185
36.37793
36.34451
36.2894
36.20888
36.09749
35.94795
35.7512
35.49677
35.19365
35.1193
35.41757
35.66221
35.85111
35.99444
36.10079
36.17642
36.22605
36.25262
36.25784
36.24208
36.20426
36.14212
36.05183
35.92785
35.76308
35.54721
35.27461
34.9771
34.9038
35.19931
35.46811
35.67214
35.82793
35.94499
36.02863
36.08368
36.11312
36.11888
36.10146
36.0595
35.99065
35.89101
35.75523
35.57728
35.34097
35.04608
34.97065
35.25829
35.47571
35.64659
35.77651
35.86884
35.92954
35.96194
35.96825
35.94913
35.90288
35.82695
35.71663
35.56642
35.37353
35.12592
34.81933
34.75617
35.00966
35.25289
35.44299
35.58763
35.68935
35.75626
35.7922
35.79913
35.77801
35.72676
35.64313
35.52116
35.3536
35.14014
34.89498
34.75334
34.99481
35.21271
35.3694
35.48185
35.55579
35.59641
35.60407
35.5804
35.52297
35.43039
35.29844
35.11278
34.89072
34.73199
34.94167
35.11011
35.23513
35.31697
35.36491
35.37395
35.34614
35.28105
35.17916
35.04189
34.85405
34.81173
34.9281
35.02884
35.07528
35.08955
35.0587
34.96945
34.88005
34.74744
34.71114
34.78112
34.78334
34.76471
36.70675
36.86457
36.91533
36.94495
36.96031
36.96977
36.97606
36.98041
36.98344
36.9855
36.98681
36.9875
36.98764
36.98723
36.98624
36.98458
36.98207
36.97843
36.97321
36.96555
36.95365
36.93316
36.89055
36.8123
36.2119
36.43143
36.59557
36.72783
36.80147
36.84771
36.87873
36.90026
36.91527
36.9255
36.93201
36.93543
36.9361
36.93408
36.92917
36.9209
36.90846
36.89045
36.86466
36.82704
36.76925
36.67308
36.50651
36.32393
35.90813
36.12441
36.32318
36.52537
36.64782
36.72732
36.78143
36.81926
36.84573
36.86382
36.87537
36.88145
36.88264
36.87905
36.87033
36.85569
36.8337
36.802
36.75684
36.69157
36.59355
36.43823
36.21086
36.01129
35.68349
35.88918
36.10264
36.34457
36.50384
36.61145
36.68615
36.7389
36.77604
36.80154
36.81786
36.82648
36.82816
36.82307
36.81074
36.79007
36.75913
36.7148
36.65208
36.5627
36.43223
36.2366
35.97548
35.78082
35.51123
35.66854
35.91892
36.18622
36.3717
36.5018
36.59419
36.66024
36.70711
36.73946
36.76022
36.77121
36.77336
36.76686
36.75115
36.72488
36.68574
36.62998
36.55187
36.4424
36.28726
36.06504
35.77649
35.59851
35.38456
35.52064
35.76591
36.04627
36.25082
36.39886
36.50617
36.5839
36.63952
36.6781
36.70297
36.71615
36.71873
36.71093
36.6921
36.6607
36.61411
36.5482
36.45681
36.33081
36.15674
35.91725
35.6232
35.44584
35.39409
35.6265
35.91804
36.13916
36.3022
36.42222
36.51014
36.57356
36.61777
36.64637
36.66156
36.66454
36.65554
36.63386
36.59781
36.54454
36.46966
36.36681
36.22692
36.03685
35.78156
35.49055
35.31824
35.2732
35.4977
35.80057
36.03548
36.21108
36.34202
36.43887
36.50922
36.55851
36.59049
36.60753
36.61087
36.60078
36.57649
36.53623
36.47698
36.39418
36.28138
36.12968
35.9264
35.6565
35.34041
35.1919
35.13998
35.37982
35.69411
35.93853
36.12448
36.26495
36.36972
36.44629
36.50017
36.53524
36.55396
36.55763
36.54654
36.51988
36.47579
36.41114
36.32128
36.19972
36.03793
35.82442
35.54625
35.22589
35.04805
35.25464
35.56373
35.81813
36.01578
36.16729
36.28133
36.36524
36.42458
36.46334
36.48407
36.48814
36.47585
36.44634
36.3977
36.32667
36.2285
36.09676
35.92331
35.69869
35.41061
35.12074
35.03067
35.35171
35.62054
35.83709
36.00523
36.13295
36.22783
36.2954
36.33975
36.36352
36.3682
36.35409
36.32028
36.26474
36.18412
36.07362
35.9268
35.7352
35.49278
35.17895
35.11206
35.41818
35.65595
35.83996
35.98042
36.08577
36.16118
36.21084
36.23748
36.24271
36.22691
36.18903
36.12693
36.03715
35.915
35.75418
35.54378
35.28196
34.95404
34.88809
35.19019
35.46022
35.66057
35.81499
35.93179
36.01544
36.07058
36.10022
36.10603
36.08846
36.04635
35.97745
35.87785
35.74281
35.56709
35.33632
35.04439
34.95849
35.24187
35.45887
35.62933
35.7587
35.85122
35.91238
35.94545
35.95193
35.93232
35.88545
35.80918
35.699
35.54945
35.35678
35.11243
34.80648
34.72625
34.98351
35.22743
35.41597
35.5581
35.66043
35.7285
35.7659
35.77322
35.75102
35.69842
35.61377
35.49282
35.32763
35.11469
34.86719
34.70535
34.94908
35.15935
35.31869
35.43253
35.50908
35.55235
35.56086
35.53514
35.47513
35.38082
35.24587
35.06392
34.84866
34.85774
35.03427
35.15448
35.24254
35.29434
35.304
35.27467
35.20315
35.09521
34.94108
34.73416
34.72374
34.834
34.92076
34.99771
35.0041
34.95294
34.88611
34.79418
36.7606
36.868
36.91038
36.93576
36.95626
36.96793
36.97548
36.98063
36.98424
36.98677
36.98851
36.98962
36.99021
36.99032
36.98998
36.98914
36.98773
36.98562
36.98259
36.97829
36.97209
36.96278
36.94771
36.92202
36.89367
36.8228
36.67087
36.23553
36.44002
36.57885
36.6854
36.78188
36.83873
36.87586
36.90132
36.91921
36.9318
36.94044
36.94597
36.94888
36.94945
36.94773
36.94355
36.93655
36.92607
36.91104
36.88973
36.85912
36.81354
36.74099
36.62581
36.51825
36.33553
35.92116
36.13474
36.30719
36.45934
36.61511
36.71182
36.77635
36.82108
36.85269
36.875
36.89034
36.90017
36.90537
36.90639
36.90331
36.89588
36.88343
36.86483
36.83824
36.80068
36.74715
36.66862
36.54752
36.37198
36.22876
36.01984
35.6899
35.90421
36.08677
36.26331
36.4612
36.59048
36.67909
36.74141
36.78581
36.8173
36.83903
36.85299
36.86038
36.86183
36.85746
36.8469
36.82924
36.80294
36.76548
36.71291
36.63878
36.53218
36.37364
36.15956
36.0026
35.78664
35.5061
35.72356
35.9025
36.09461
36.32178
36.4765
36.58546
36.66339
36.71946
36.75947
36.78719
36.80504
36.81451
36.81637
36.81076
36.79724
36.77469
36.7412
36.69374
36.62763
36.53561
36.40609
36.21989
35.97984
35.81903
35.60653
35.38031
35.57027
35.746
35.94847
36.19537
36.37003
36.49605
36.58763
36.6542
36.70201
36.73528
36.75677
36.76818
36.77042
36.76366
36.74737
36.72027
36.68015
36.6236
36.54547
36.4381
36.28991
36.08326
35.82754
35.65825
35.47343
35.42059
35.61204
35.81746
36.0792
36.27033
36.41085
36.51436
36.59031
36.64522
36.68359
36.70844
36.72166
36.72426
36.71642
36.69756
36.66625
36.62008
36.55532
36.46656
36.34596
36.18212
35.95894
35.69439
35.52242
35.33079
35.29563
35.48763
35.69778
35.97212
36.17671
36.32952
36.44347
36.52782
36.58917
36.63222
36.66018
36.67508
36.67801
36.66917
36.64793
36.61275
36.56104
36.48888
36.3907
36.25868
36.08184
35.84523
35.5705
35.39957
35.20293
35.19129
35.3676
35.58826
35.87285
36.08817
36.25146
36.37464
36.46654
36.53376
36.58111
36.61195
36.62841
36.63165
36.62189
36.59844
36.55968
36.5029
36.42404
36.31745
36.17548
35.98789
35.74083
35.4567
35.26318
35.11353
35.0655
35.22776
35.45734
35.74984
35.97715
36.15257
36.2866
36.38744
36.46168
36.51422
36.54855
36.56691
36.57052
36.55963
36.53349
36.49041
36.42755
36.34072
36.22422
36.07062
35.87075
35.61262
35.32172
35.15495
35.02911
35.24775
35.54663
35.79366
35.98822
36.13871
36.25299
36.33786
36.39834
36.43805
36.45936
36.46355
36.4509
36.42062
36.37089
36.29875
36.19991
36.0685
35.89694
35.67737
35.4004
35.10309
34.95149
35.0339
35.33022
35.60517
35.8203
35.98675
36.1137
36.20869
36.27674
36.32158
36.34568
36.35042
36.33611
36.30188
36.24582
36.16485
36.05462
35.90909
35.71923
35.47728
35.15715
34.88942
35.08761
35.40021
35.63894
35.82215
35.96242
36.06803
36.14391
36.19403
36.22103
36.22635
36.21031
36.17199
36.10942
36.01924
35.89703
35.7367
35.52699
35.26318
34.92986
34.86953
35.16896
35.43555
35.63685
35.79199
35.90925
35.99361
36.04951
36.07978
36.08575
36.06774
36.0249
35.95525
35.85507
35.71952
35.54282
35.31216
35.02428
34.91777
35.19659
35.42075
35.5936
35.72435
35.81843
35.88101
35.91523
35.922
35.9016
35.85341
35.77562
35.66399
35.51278
35.31612
35.03844
34.76535
34.91077
35.15549
35.35324
35.5032
35.6093
35.68003
35.71929
35.72706
35.70364
35.64872
35.5612
35.43421
35.26067
35.01826
34.75416
34.85791
35.0661
35.23632
35.3563
35.43714
35.48327
35.49189
35.46513
35.40097
35.30232
35.15593
34.95547
34.72314
34.73336
34.91863
35.05651
35.14411
35.19874
35.20461
35.17787
35.09818
34.97985
34.83482
34.73419
34.81277
34.85777
34.83784
34.84758
34.76822
36.8033
36.87503
36.91123
36.93252
36.94907
36.96451
36.97381
36.98
36.9843
36.98735
36.9895
36.99099
36.99194
36.99244
36.99254
36.99224
36.99152
36.99032
36.98852
36.98595
36.98234
36.9772
36.96967
36.95791
36.93974
36.92329
36.89529
36.85115
36.69551
36.28026
36.44798
36.58393
36.67238
36.74772
36.82203
36.86764
36.8982
36.91951
36.93464
36.94536
36.95275
36.9575
36.96001
36.96051
36.95902
36.95542
36.94942
36.94047
36.92771
36.90978
36.88435
36.84726
36.79001
36.70467
36.63281
36.52339
36.34322
36.18908
35.93281
36.14547
36.31703
36.4425
36.55923
36.68333
36.76206
36.81558
36.8532
36.88002
36.89908
36.91225
36.92072
36.9252
36.92608
36.92343
36.91702
36.90631
36.89038
36.86773
36.83599
36.79126
36.7267
36.62908
36.49148
36.38485
36.23764
36.03467
35.68881
35.90999
36.10019
36.24535
36.38905
36.55218
36.65946
36.73375
36.78652
36.82441
36.85143
36.87015
36.88221
36.88861
36.88987
36.88608
36.87694
36.86171
36.83909
36.80703
36.76233
36.69986
36.61097
36.47986
36.30455
36.17774
36.01132
35.7902
35.50161
35.72523
35.92096
36.07579
36.23758
36.43031
36.56129
36.65381
36.72037
36.76851
36.80302
36.82701
36.8425
36.85072
36.85234
36.84746
36.83572
36.81618
36.78724
36.74639
36.68978
36.61142
36.50168
36.34387
36.14149
36.00275
35.82885
35.60359
35.35897
35.57752
35.76581
35.92772
36.10268
36.31759
36.46804
36.57638
36.65528
36.71283
36.7543
36.78323
36.80195
36.81191
36.81386
36.80796
36.79376
36.77016
36.73532
36.68635
36.61893
36.52654
36.39914
36.22026
35.99836
35.85029
35.67436
35.46297
35.26793
35.42526
35.62939
35.79767
35.98109
36.21297
36.37957
36.5016
36.59154
36.65765
36.70554
36.73908
36.76084
36.77243
36.7747
36.76783
36.75131
36.72392
36.6836
36.62717
36.54999
36.44525
36.30285
36.10704
35.87141
35.71714
35.53419
35.34884
35.30454
35.50807
35.67963
35.86984
36.11541
36.29547
36.42937
36.52915
36.60306
36.65688
36.6947
36.71929
36.73242
36.735
36.72721
36.70852
36.6776
36.63219
36.56893
36.48294
36.36732
36.21216
36.00254
35.7557
35.59727
35.41202
35.21078
35.19415
35.3859
35.56861
35.76686
36.02362
36.21499
36.3593
36.46794
36.54897
36.60828
36.6501
36.67735
36.69191
36.69477
36.68614
36.66541
36.63117
36.58105
36.5115
36.41752
36.29222
36.12609
35.9051
35.64823
35.48156
35.27344
35.10077
35.07898
35.24486
35.43725
35.64089
35.90894
36.11319
36.26972
36.38889
36.47847
36.54443
36.59112
36.62165
36.63798
36.6412
36.6315
36.60826
36.56996
36.5141
36.43697
36.33345
36.1967
36.01783
35.7844
35.51873
35.34792
35.16833
35.05698
35.22917
35.43788
35.71883
35.94349
36.11911
36.25441
36.35705
36.43323
36.48753
36.52318
36.54231
36.54608
36.53472
36.50752
36.46288
36.39813
36.30939
36.19131
36.03688
35.83789
35.58574
35.31224
35.13558
34.96542
35.01671
35.22492
35.51937
35.76891
35.96419
36.11508
36.2301
36.31602
36.37757
36.41814
36.43997
36.44427
36.4313
36.40032
36.3496
36.27637
36.1766
36.04466
35.87267
35.65177
35.37383
35.08723
34.92915
35.00286
35.30388
35.58108
35.79673
35.96374
36.09157
36.18757
36.25661
36.30225
36.32687
36.33172
36.31708
36.28218
36.22522
36.14322
36.03203
35.88576
35.6955
35.45251
35.13024
34.84972
35.05995
35.37166
35.60792
35.79266
35.93476
36.0419
36.1191
36.17028
36.19799
36.20346
36.18697
36.14775
36.08398
35.99237
35.86849
35.70628
35.49637
35.2351
34.90127
34.81343
35.12786
35.38588
35.59214
35.7514
35.87176
35.95845
36.01601
36.04732
36.05352
36.03485
35.99065
35.91903
35.81613
35.67705
35.49556
35.26035
34.97817
34.85983
35.12117
35.35073
35.53112
35.66865
35.76696
35.83204
35.86768
35.87471
35.8535
35.80332
35.72239
35.60506
35.44669
35.24134
34.98266
34.68991
34.83945
35.0686
35.26517
35.42449
35.53637
35.61007
35.65078
35.65853
35.6347
35.57737
35.48605
35.35032
35.17084
34.94644
34.70315
34.73525
34.95081
35.13623
35.25858
35.34109
35.38641
35.39308
35.3693
35.30365
35.20358
35.05213
34.86356
34.8031
34.92114
35.0162
35.06529
35.06671
35.04717
34.95953
34.86648
34.70761
34.74876
34.75884
36.76061
36.87503
36.91157
36.93278
36.94657
36.95859
36.97082
36.97846
36.98365
36.9873
36.9899
36.99176
36.99304
36.99387
36.99431
36.9944
36.99414
36.99351
36.99246
36.99091
36.98871
36.98562
36.98129
36.97503
36.96551
36.95167
36.94038
36.92335
36.8965
36.83933
36.23559
36.44796
36.58472
36.67486
36.73681
36.79342
36.85293
36.89059
36.91627
36.93439
36.94736
36.9566
36.963
36.96713
36.96931
36.96974
36.96845
36.96532
36.96012
36.95238
36.94142
36.92609
36.90458
36.87367
36.82695
36.76062
36.70859
36.63418
36.52372
36.35164
35.92124
36.14553
36.3203
36.44833
36.54329
36.63517
36.73658
36.80225
36.84747
36.87958
36.90265
36.91911
36.93054
36.9379
36.94181
36.94258
36.94026
36.93468
36.92538
36.91159
36.89206
36.86486
36.82685
36.77264
36.69189
36.58141
36.49929
36.38913
36.23993
36.02827
35.68998
35.91007
36.10381
36.25384
36.37029
36.48819
36.62455
36.7152
36.77849
36.82379
36.85649
36.87992
36.89621
36.90672
36.91231
36.91341
36.9101
36.90212
36.88886
36.86921
36.84147
36.80299
36.74956
36.67413
36.56383
36.41863
36.31569
36.1836
36.01306
35.78949
35.50618
35.7253
35.92483
36.08632
36.21675
36.3538
36.51837
36.63065
36.71023
36.76772
36.80949
36.83953
36.86048
36.87402
36.88123
36.88265
36.87837
36.8681
36.85102
36.82579
36.79028
36.74127
36.67373
36.57952
36.44441
36.2724
36.15498
36.00989
35.83015
35.60512
35.38035
35.57755
35.77272
35.93963
36.08002
36.23148
36.4185
36.54918
36.64324
36.71188
36.76208
36.79835
36.8237
36.84014
36.84889
36.85061
36.84542
36.83294
36.81225
36.78174
36.73896
36.68023
36.59996
36.48937
36.33378
36.14114
36.01299
35.85961
35.67837
35.46783
35.42526
35.63557
35.80988
35.95777
36.11975
36.32461
36.47091
36.57777
36.65654
36.71453
36.75662
36.78614
36.80531
36.81554
36.81755
36.81149
36.79692
36.77279
36.73733
36.68779
36.62014
36.52844
36.40364
36.23116
36.02285
35.88691
35.72626
35.53693
35.34007
35.30455
35.51689
35.69387
35.84667
36.01671
36.23603
36.39563
36.51382
36.60179
36.66697
36.7145
36.74793
36.76969
36.78131
36.7836
36.77671
36.76016
36.7328
36.69269
36.63687
36.56105
36.45909
36.32192
36.1354
35.91472
35.77314
35.60864
35.41708
35.21021
35.19418
35.40493
35.58572
35.7435
35.9205
36.15176
36.32284
36.45115
36.54753
36.61938
36.67199
36.70912
36.73333
36.74628
36.74882
36.74114
36.72272
36.69231
36.64783
36.58615
36.50281
36.39157
36.24352
36.04517
35.81421
35.66739
35.49839
35.30296
35.10393
35.07899
35.2821
35.45868
35.61819
35.80156
36.04569
36.22999
36.37031
36.47679
36.55675
36.6156
36.65728
36.68454
36.69914
36.70202
36.69335
36.67259
36.63839
36.58853
36.51971
36.42728
36.30494
36.14414
35.9325
35.69114
35.54045
35.37379
35.17928
35.06631
35.24294
35.41318
35.60734
35.86937
36.07396
36.23285
36.35491
36.4474
36.51602
36.56492
36.59703
36.61427
36.61767
36.60742
36.58293
36.54272
36.4844
36.40446
36.29801
36.15854
35.97802
35.74668
35.49048
35.33066
35.1462
34.96959
35.03204
35.19956
35.40731
35.68693
35.91315
36.09043
36.22745
36.33189
36.40984
36.46569
36.5025
36.52231
36.52622
36.51444
36.48633
36.44031
36.37387
36.28332
36.16348
36.00739
35.80673
35.55405
35.28244
35.10843
34.92399
34.98021
35.19317
35.48976
35.73992
35.936
36.08833
36.20506
36.29265
36.35565
36.39731
36.4198
36.42424
36.41086
36.37899
36.32699
36.25218
36.15069
36.01714
35.84403
35.6225
35.34373
35.05288
34.88487
34.97072
35.27161
35.54575
35.7615
35.93059
36.06088
36.15909
36.22993
36.27689
36.3023
36.30733
36.29219
36.25623
36.19769
36.11368
36.00013
35.85145
35.65992
35.41756
35.09818
34.81256
35.01779
35.31703
35.55724
35.74597
35.89213
36.00279
36.08268
36.13569
36.16444
36.17013
36.153
36.11235
36.04633
35.9516
35.82389
35.6575
35.44392
35.17002
34.8518
34.74739
35.02721
35.3141
35.52575
35.69052
35.81644
35.90712
35.96714
35.99977
36.00622
35.9868
35.94071
35.86595
35.75813
35.61333
35.42658
35.18527
34.89664
34.72443
35.0064
35.2606
35.44769
35.59241
35.69567
35.7637
35.80073
35.80793
35.78607
35.73367
35.64902
35.52526
35.35966
35.14932
34.89488
34.69554
34.94358
35.15886
35.32237
35.43869
35.51639
35.5585
35.56615
35.5421
35.48181
35.38685