/*--------------------------------*- C++ -*----------------------------------*\
| =========                 |                                                 |
| \\      /  F ield         | OpenFOAM: The Open Source CFD Toolbox           |
|  \\    /   O peration     | Version:  5.x                                   |
|   \\  /    A nd           | Web:      www.OpenFOAM.org                      |
|    \\/     M anipulation  |                                                 |
\*---------------------------------------------------------------------------*/
FoamFile
{
    version     2.0;
    format      ascii;
    class       volScalarField;
    location    "30/tumor";
    object      T;
}
// * * * * * * * * * * * * * * * * * * * * * * * * * * * * * * * * * * * * * //

dimensions      [0 0 0 1 0 0 0];

internalField   nonuniform List<scalar> 
1504
(
38.5922
38.78824
38.85576
38.69343
39.26042
39.36591
39.01501
38.75192
39.42382
39.56201
39.10055
38.69254
39.38702
39.52662
39.06047
38.59319
39.2698
39.41016
38.96512
38.446
39.06849
39.21924
38.80487
38.24143
38.79059
38.93815
38.52335
38.44979
38.5804
38.20014
38.0578
38.18518
38.7883
39.36303
39.51113
39.10837
39.26003
39.97773
40.12589
39.6835
38.81536
39.42359
40.14877
40.2952
39.85673
38.87355
39.3868
40.1136
40.26001
39.82061
38.86552
39.26951
39.99523
40.14106
39.70379
38.76775
39.06813
39.79534
39.9415
39.50508
38.59522
38.79053
39.50889
39.65518
39.21825
38.34049
38.44987
39.14222
39.28531
38.85599
38.05786
38.69331
38.83548
38.40568
38.18891
38.30426
37.98304
37.86047
38.85563
39.51102
39.6486
39.23291
39.36565
40.12576
40.27424
39.82766
38.9332
39.56177
40.2951
40.44262
40.00101
38.96703
38.59207
39.52637
40.25991
40.40776
39.96508
38.95206
39.40992
40.14094
40.288
39.84801
38.85321
39.21901
39.94137
40.08732
39.65225
38.69839
38.93798
39.65512
39.80157
39.3666
38.49659
38.58027
39.28517
39.4326
38.99655
38.2051
38.18509
38.83537
38.98709
38.52911
38.3042
38.47308
38.04763
37.86043
37.95558
39.10824
39.23284
38.79908
39.01485
39.68332
39.8277
39.38457
38.6758
39.10039
39.85655
40.00106
39.55804
38.63465
39.06031
39.82043
39.9651
39.5187
38.60202
38.96496
39.70359
39.84796
39.40899
38.51573
38.80471
39.5049
39.65217
39.21704
38.37603
38.52322
39.21809
39.36646
38.89277
38.20003
38.85584
38.99647
38.58466
38.40556
38.52908
38.08764
37.98296
38.04761
38.81522
38.93303
38.67591
38.87338
38.96688
38.63506
38.86535
38.9519
38.60252
38.76759
38.85306
38.51614
38.59507
38.69825
38.37625
38.34037
38.4965
38.20504
38.73677
38.73681
38.67586
38.71858
38.81541
38.93331
38.94343
39.04235
38.93336
38.81545
39.04238
38.94346
38.67587
38.7186
38.63471
38.63045
38.57503
38.87345
38.96715
38.89024
38.96872
38.57507
38.96718
38.87348
38.96874
38.89026
38.63475
38.63048
38.60206
38.56697
38.5922
38.51879
38.86541
38.95218
38.8339
38.91571
38.51881
38.95221
38.86542
38.91574
38.83392
38.60211
38.56701
38.51576
38.4537
38.76765
38.85332
38.67948
38.78839
38.85335
38.76768
38.78841
38.6795
38.51581
38.45375
38.37606
38.2926
38.59519
38.69848
38.49374
38.5986
38.69851
38.59522
38.59861
38.49377
38.37613
38.29266
38.34049
38.49669
38.22954
38.37506
38.49669
38.34051
38.37507
38.22956
38.20522
38.20525
38.80973
38.87561
38.87563
38.80982
38.75631
38.7991
38.75632
39.14438
38.85576
39.03884
39.15383
39.10833
39.23291
39.4175
39.58121
38.78834
39.15384
39.03902
39.23293
39.10858
39.58109
39.41822
38.75631
38.79912
39.14437
38.75634
38.67597
38.71891
39.01503
38.78248
39.13464
39.01512
39.38464
39.13567
39.54175
38.69346
39.13466
38.78254
39.38456
39.01521
39.54168
39.13579
38.67601
38.71897
38.63512
38.63096
39.10054
38.7303
39.08676
39.10208
39.55812
39.08855
39.54745
38.752
39.08683
38.73033
39.5581
39.10216
39.54747
39.08861
38.6352
38.63104
38.60256
38.56745
39.06044
38.64228
39.01827
39.0623
39.51876
39.02004
39.47274
38.69259
39.01835
38.64228
39.5188
39.06234
39.47279
39.02008
38.60264
38.56754
38.51616
38.454
38.96508
38.53001
38.8945
38.96656
39.40906
38.89557
39.32558
38.59324
38.89458
38.53002
39.40913
38.9666
39.32563
38.89561
38.51625
38.45408
38.37628
38.29275
38.80482
38.35079
38.68692
38.80549
39.21712
38.68722
39.07578
38.44606
38.68701
38.35082
39.21717
38.80553
39.07584
38.68727
38.37636
38.29282
38.52331
38.33521
38.52339
38.89281
38.33514
38.74863
38.93814
38.63776
38.75203
39.2181
39.36671
39.049
39.19153
38.7906
38.75206
38.63776
39.36675
39.21809
39.19151
39.04904
38.24152
38.33529
38.8929
38.52345
38.7487
38.3352
38.20012
38.05166
38.20009
38.58468
38.05167
38.37222
38.58038
38.24806
38.39223
38.85538
38.99668
38.62295
38.778
38.44982
38.39232
38.24803
38.99672
38.85538
38.77804
38.62296
38.05171
38.58476
38.20016
38.37229
38.05175
38.08767
37.957
38.18515
37.99781
38.40543
38.52914
38.16937
38.30324
38.05783
37.99787
38.52917
38.40547
38.30327
38.16942
38.08774
37.95707
37.98293
38.04764
37.87558
38.04768
37.98297
37.8756
38.80982
38.87559
39.02947
39.10396
39.10394
39.19342
39.104
39.02947
39.19344
39.10398
38.80976
38.87563
38.73667
39.10857
39.03887
39.41828
38.85565
39.23284
39.15358
39.58097
38.78824
39.41765
39.03876
39.23294
38.85573
39.58128
39.15373
38.73672
38.81538
38.94351
38.93314
39.0422
38.94353
38.93318
39.04223
38.87351
38.8903
38.96699
38.57496
38.96856
38.89039
38.96704
38.96861
38.57506
38.86547
38.83397
38.59213
38.95201
38.51872
38.91555
38.83406
38.95208
38.59222
38.91563
38.51881
38.76769
38.67947
38.85315
38.78824
38.67956
38.85323
38.78829
38.59518
38.49374
38.69834
38.59849
38.4938
38.69839
38.59853
38.34049
38.22953
38.49659
38.37499
39.21824
38.63774
39.04963
38.93798
39.36656
38.75192
39.19146
38.79055
39.04972
38.63775
39.36658
38.938
39.19148
38.75194
38.22956
38.49664
38.37502
38.20516
38.85597
38.24815
38.62331
38.58031
38.99659
38.39218
38.77793
38.44991
38.62338
38.24815
38.99662
38.58034
38.77798
38.39222
38.20519
38.40561
38.16946
38.18512
38.52911
37.99778
38.30322
38.05791
38.16958
38.52919
38.18517
38.3033
37.99787
37.98298
38.04762
37.87556
38.30428
37.87706
38.05364
38.30425
38.47313
38.05362
38.18266
38.18896
38.05371
37.87707
38.47314
38.30426
38.18265
38.05364
38.0477
37.87561
37.86042
37.8604
37.95562
37.95562
37.86045
38.87555
38.80973
39.10393
39.1934
39.02938
39.10391
39.19344
39.10397
39.10395
39.02944
38.87563
38.80972
38.73667
39.2328
39.15363
39.58092
38.78822
39.10844
39.03886
39.41806
38.85573
39.58123
39.15376
39.1083
38.7882
39.41747
39.03878
38.73672
38.93319
39.0422
38.81531
38.94331
39.04225
38.81533
38.94334
38.96699
38.57494
38.96856
38.87332
38.89009
38.96864
38.57501
38.87337
38.89015
38.95202
38.51868
38.91556
38.86525
38.83376
38.59217
38.91565
38.51876
38.86531
38.83381
38.85317
38.78825
38.76752
38.67935
38.78832
38.76758
38.67939
38.69835
38.59847
38.59507
38.49364
38.59856
38.59512
38.49367
38.49656
38.37495
38.34039
38.22945
39.36659
38.75191
39.19136
38.79044
39.21793
38.63761
39.04888
38.938
39.19142
38.7519
39.21795
38.79047
39.0489
38.63764
38.37498
38.34043
38.22948
38.20515
38.99656
38.3922
38.7779
38.44969
38.85523
38.24792
38.62283
38.5803
38.77797
38.39217
38.85526
38.44973
38.62286
38.24798
38.52907
37.99779
38.30319
38.05773
38.40535
38.16932
38.18512
38.3033
37.9978
38.4054
38.0578
38.16936
38.04761
37.87554
37.98288
38.47309
38.05366
38.18262
38.18888
38.3042
37.877
38.05359
38.30422
38.18264
38.05359
38.30419
38.18889
38.05357
37.87703
37.87558
37.98292
37.95558
37.86041
37.8604
37.86039
38.80966
38.87555
38.87561
38.80981
38.79901
38.75619
39.14422
38.75622
39.23282
39.41749
39.58111
38.78812
38.8556
39.0386
39.15352
39.10855
39.58101
39.41825
38.85563
38.78827
39.15352
39.03882
39.14436
38.75627
38.75628
38.67575
38.71847
39.38439
39.1345
39.54151
38.69334
39.01505
38.78241
39.13563
39.01496
39.5417
39.13457
39.01505
38.69338
39.1356
38.78243
38.71855
38.63463
38.63036
39.55793
39.08667
39.54729
38.75187
39.102
38.7302
39.08845
39.10048
39.54742
39.08669
39.10201
38.7519
39.08848
38.73025
38.63044
38.60198
38.56688
39.51862
39.01819
39.47261
38.69246
39.06217
38.64215
39.01991
39.06037
39.47273
39.0182
39.06223
38.69251
39.01997
38.64222
38.56697
38.51568
38.45363
39.40895
38.89442
39.32545
38.59311
38.96644
38.52989
38.89545
38.96501
39.32553
38.89443
38.9665
38.59317
38.8955
38.52996
38.45371
38.37601
38.29254
39.217
38.68687
39.07567
38.44592
38.80537
38.3507
38.68713
38.80476
39.07577
38.68687
38.80543
38.44599
38.68718
38.35077
38.2926
38.89274
38.33517
38.74856
38.24141
38.52332
38.33508
39.36643
39.04957
39.19133
38.7904
38.93783
38.63761
38.7518
39.2181
39.19136
39.04953
38.93784
38.79042
38.7518
38.63762
38.52328
38.74864
38.3352
38.52337
38.24148
38.33512
38.58462
38.0516
38.37217
38.20005
38.05165
38.99647
38.62325
38.77785
38.44978
38.58021
38.24804
38.39212
38.85586
38.77791
38.62322
38.58022
38.4498
38.39212
38.24807
38.20011
38.37226
38.05168
38.20008
38.05168
38.08764
37.95698
38.52908
38.16949
38.30321
38.05782
38.18509
37.99779
38.40559
38.30327
38.16945
38.18509
38.05786
37.99777
37.957
38.04763
37.87556
37.98296
37.87556
38.73658
38.73662
38.67589
38.71885
38.933
38.94338
39.04206
38.8153
39.04211
38.94342
38.71887
38.63507
38.63091
38.96686
38.89022
38.96843
38.57494
38.87343
38.96848
38.89022
38.57494
38.63095
38.60251
38.5674
38.95189
38.83389
38.91545
38.59209
38.51869
38.86539
38.9155
38.83388
38.5921
38.51869
38.56746
38.51612
38.45395
38.85306
38.67941
38.78812
38.76762
38.78817
38.67939
38.45402
38.37624
38.2927
38.69824
38.49367
38.59839
38.5951
38.59845
38.49367
38.29276
38.49652
38.22945
38.37491
38.34043
38.37491
38.22948
38.2051
39.36587
39.40691
39.53692
39.68312
39.82772
39.83101
39.97435
39.26061
39.53699
39.40697
39.82783
39.68384
39.97446
39.83129
39.56197
39.41526
39.55464
39.856
40.00112
39.84852
39.99406
39.42388
39.55473
39.41526
40.00121
39.85612
39.99413
39.8486
39.52658
39.33804
39.47721
39.81979
39.96516
39.77109
39.91604
39.38704
39.4773
39.33799
39.96524
39.81982
39.91611
39.7711
39.41012
39.18131
39.32524
39.70318
39.84811
39.61541
39.76105
39.26981
39.32533
39.18128
39.84816
39.70318
39.76108
39.61541
39.21921
38.91978
39.0898
39.50505
39.65237
39.37071
39.52049
39.06851
39.08985
38.91976
39.65243
39.505
39.52054
39.37068
39.51112
39.72442
39.87582
39.51106
39.64858
39.87568
40.02307
39.36309
39.8758
39.72446
39.64863
39.51116
40.02313
39.87589
39.68415
39.40667
39.83172
39.3655
39.82775
39.53665
39.97437
40.12572
40.12213
40.26823
40.12584
40.27422
40.26841
40.41562
39.97778
40.2685
40.12208
40.27429
40.12574
40.4157
40.26824
39.26003
39.8315
39.40667
39.82779
39.36558
39.97436
39.5367
39.85681
39.41503
39.84937
39.56173
40.00112
39.55439
39.99406
40.2951
40.14215
40.28856
40.29525
40.44258
40.28868
40.43629
40.14882
40.28867
40.14218
40.44266
40.29514
40.43635
40.28863
39.42362
39.84946
39.41503
40.00113
39.56174
39.99407
39.55441
39.8206
39.33782
39.7718
39.52634
39.96514
39.47699
39.916
40.2599
40.06454
40.21038
40.26001
40.40769
40.21048
40.35791
40.11355
40.21068
40.06428
40.40776
40.25996
40.35798
40.21043
39.38682
39.77184
39.33778
39.96517
39.52634
39.91603
39.477
39.70373
39.18091
39.61567
39.40987
39.84803
39.32498
39.76097
40.14098
39.90592
40.05171
40.14104
40.28791
40.05177
40.19795
39.99523
40.05171
39.90603
40.28799
40.14101
40.198
40.05176
39.26953
39.61583
39.18089
39.84807
39.40987
39.76101
39.32499
39.50508
38.91962
39.37065
39.21894
39.65227
39.08958
39.52039
39.94143
39.66259
39.80894
39.94155
40.08727
39.80923
39.95504
39.79529
39.80929
39.66227
40.08734
39.9415
39.95511
39.8092
39.06815
39.37064
38.9196
39.65231
39.21895
39.52041
39.0896
39.65511
39.3359
39.48032
39.65523
39.80151
39.48032
39.62712
39.50886
39.48025
39.33599
39.80158
39.65523
39.62716
39.48031
39.28529
38.92674
39.06987
39.28518
39.43259
39.06977
39.21863
39.14221
39.07017
38.92653
39.43264
39.28513
39.21867
39.06973
38.83541
38.43363
38.5832
38.83534
38.9871
38.58316
38.73906
38.6933
38.58316
38.43369
38.98711
38.83535
38.73906
38.58319
39.64857
39.87565
40.02304
39.36296
39.51105
39.72429
39.87574
39.51115
40.02312
39.87586
39.51109
39.36304
39.87572
39.72441
39.82767
39.53675
39.9743
39.26042
39.68365
39.40677
39.8311
40.27419
40.26838
40.41558
39.9776
40.12562
40.12191
40.26813
40.12571
40.41571
40.26817
40.12583
39.9777
40.26837
40.122
39.36572
39.9743
39.53676
39.68307
39.26034
39.83093
39.40677
40.00105
39.55449
39.99397
39.42367
39.85593
39.41506
39.84841
40.44257
40.28857
40.43626
40.14866
40.29504
40.14202
40.28854
40.29505
40.4364
40.28851
40.29522
40.14873
40.28866
40.14208
39.56178
39.994
39.55444
39.85591
39.42369
39.84843
39.41508
39.96507
39.47705
39.91593
39.38684
39.81963
39.33779
39.77091
40.40768
40.21057
40.3579
40.11339
40.25987
40.06412
40.21034
40.25983
40.35809
40.21029
40.25997
40.11342
40.21041
40.06413
39.52637
39.91606
39.477
39.81968
39.38686
39.77097
39.33781
39.84797
39.3251
39.7609
39.2696
39.70299
39.18108
39.61521
40.28792
40.05158
40.19793
39.99506
40.14091
39.90586
40.05166
40.14089
40.19808
40.05163
40.14098
39.99505
40.05171
39.90587
39.40991
39.76097
39.32504
39.70305
39.26962
39.61527
39.1811
39.65225
39.08965
39.52037
39.06832
39.50481
38.91959
39.3705
40.08724
39.80921
39.95501
39.79513
39.94139
39.66213
39.80913
39.94132
39.95522
39.80888
39.94146
39.79514
39.80917
39.66215
39.21901
39.52042
39.08962
39.50486
39.06834
39.37054
38.91962
39.80151
39.48014
39.62708
39.50873
39.65518
39.33585
39.48021
39.65508
39.62717
39.48024
39.65521
39.50875
39.48024
39.33586
39.43255
39.07003
39.21859
39.14206
39.28499
38.92639
39.0696
39.28512
39.21876
39.06971
39.28502
39.14204
39.06961
38.92636
38.98704
38.58307
38.73901
38.69317
38.83524
38.43359
38.5831
38.83531
38.73903
38.58314
38.83524
38.69316
38.58309
38.4336
39.82764
39.83132
39.97421
39.25984
39.36533
39.40647
39.53647
39.6841
39.97435
39.83165
39.36536
39.25995
39.5365
39.40653
40.00099
39.84927
39.99393
39.42341
39.56152
39.41482
39.55418
39.85672
39.99405
39.84927
39.56156
39.42346
39.55421
39.41486
39.96502
39.77165
39.91586
39.38661
39.52611
39.33757
39.47676
39.82049
39.91604
39.77168
39.52615
39.38664
39.4768
39.3376
39.8479
39.61564
39.76084
39.26933
39.40964
39.1807
39.32477
39.70361
39.76092
39.61553
39.40967
39.26934
39.32479
39.18071
39.65214
39.37047
39.52025
39.06797
39.21873
38.91943
39.08941
39.5049
39.52034
39.37049
39.21876
39.06798
39.08942
38.91946
)
;

boundaryField
{
    tumor_to_gland
    {
        type            compressible::turbulentTemperatureCoupledBaffleMixed;
        refValue        nonuniform List<scalar> 
1228
(
38.04583
38.04583
38.15708
38.15708
38.15708
38.15708
37.88476
37.88476
37.88476
37.88476
37.99365
37.99365
37.99365
37.99365
38.44088
38.44088
38.44088
38.52826
38.52826
38.52826
38.52826
38.45273
38.45273
38.45273
38.2594
38.2594
38.2594
38.2594
37.91017
37.91017
37.91017
37.91017
37.86487
37.86487
37.86487
37.70292
37.70292
37.79675
37.79675
37.79675
37.79675
37.79675
38.63497
38.63497
38.63497
38.63497
38.34733
38.34733
38.34733
38.34733
38.04587
38.04587
37.8848
37.8848
37.8848
37.8848
37.96478
37.96478
37.96478
37.68225
37.68225
37.70294
37.70294
37.60407
37.60407
37.60407
38.4408
38.4408
38.4408
38.50063
38.50063
38.157
38.157
38.157
38.157
37.99358
37.99358
37.99358
37.99358
38.07536
38.07536
38.07536
38.07536
38.07536
38.07536
37.7858
37.79668
37.79668
37.79668
37.79668
37.79668
37.68251
37.68251
37.45201
38.63489
38.63489
38.63489
38.63489
38.37667
38.52815
38.52815
38.52815
38.52815
38.3181
38.3181
38.15799
38.15799
38.15799
37.77585
37.77585
37.77585
37.86478
37.86478
37.86478
37.7863
37.7863
37.604
37.604
37.604
37.68249
37.68249
38.34724
38.34724
38.34724
38.34724
38.50056
38.50056
38.31833
38.31833
38.15823
38.15823
38.15823
37.96469
37.96469
37.96469
38.07532
38.07532
38.07532
38.07532
38.07532
38.07532
37.77591
37.77591
37.77591
37.68218
37.68218
37.78577
38.2907
38.2907
38.29071
38.29071
38.24746
38.24746
38.11504
38.11504
38.11504
38.34734
38.34734
38.34734
38.34734
38.5007
38.5007
38.55084
38.55084
38.55084
38.55084
38.55084
38.11505
38.11505
38.11505
38.50072
38.50072
38.34735
38.34735
38.34735
38.34735
38.55086
38.55086
38.55086
38.55086
38.55086
38.24747
38.24747
38.31816
38.31816
37.97276
37.97276
37.97276
38.27495
38.27495
38.27495
38.15709
38.15709
38.15709
38.15709
38.0024
38.0024
38.0024
38.0024
38.10968
38.10968
38.10968
38.04586
38.04586
38.1097
38.1097
38.1097
38.00242
38.00242
38.00242
38.00242
38.31817
38.31817
38.27496
38.27496
38.27496
37.97278
37.97278
37.97278
38.158
38.158
38.158
37.91956
37.91956
37.91956
37.99364
37.99364
37.99364
37.99364
37.80905
37.80905
37.80905
38.19234
38.19234
38.19234
38.19234
38.19234
38.19234
38.19234
38.19234
37.88478
37.88478
37.88478
37.88478
37.80904
37.80904
37.80904
38.19238
38.19238
38.19238
38.19238
38.19238
38.19238
38.19238
38.19238
38.15804
38.15804
38.15804
37.91961
37.91961
37.91961
37.77588
37.77588
37.77588
37.96477
37.96477
37.96477
38.07547
38.07547
38.07547
38.07547
38.07547
38.07547
37.82007
37.82007
37.91812
37.91812
37.91812
38.07543
38.07543
38.07543
38.07543
38.07543
38.07543
37.96482
37.96482
37.96482
37.9181
37.9181
37.9181
37.82011
37.82011
37.77595
37.77595
37.77595
37.68231
37.68231
37.78595
37.64871
37.78594
37.68235
37.68235
37.64871
38.37743
38.37743
38.3291
38.3291
38.37668
38.32912
38.32912
38.44089
38.44089
38.44089
38.59458
38.59458
38.59458
38.59458
38.59458
38.63499
38.63499
38.63499
38.63499
38.59463
38.59463
38.59463
38.59463
38.59463
38.63503
38.63503
38.63503
38.63503
38.32912
38.32912
38.3767
38.32912
38.32912
38.24757
38.24757
38.52828
38.52828
38.52828
38.52828
38.37041
38.37041
38.5283
38.5283
38.5283
38.5283
38.37042
38.37042
38.5283
38.5283
38.5283
38.5283
38.24759
38.24759
37.97284
37.97284
37.97284
38.31839
38.31839
38.27523
38.27523
38.27523
38.45282
38.45282
38.45282
37.97288
37.97288
37.97288
38.31843
38.31843
38.27528
38.27528
38.27528
38.15823
38.15823
38.15823
37.91966
37.91966
37.91966
38.04432
38.04432
38.04432
38.25946
38.25946
38.25946
38.25946
38.04436
38.04436
38.04436
38.15829
38.15829
38.15829
37.91973
37.91973
37.91973
37.77595
37.77595
37.77595
38.02902
38.02902
38.02902
38.02902
38.02904
38.02904
38.02904
38.02904
37.91025
37.91025
37.91025
37.91025
38.02906
38.02906
38.02906
38.02906
38.02913
38.02913
38.02913
38.02913
37.77597
37.77597
37.77597
37.86484
37.86484
37.86484
37.6862
37.86485
37.86485
37.86485
37.68621
37.90131
37.90131
37.90131
37.90131
37.90131
37.9013
37.9013
37.9013
37.9013
37.9013
37.68618
37.86498
37.86498
37.86498
37.68633
37.79672
37.79672
37.79672
37.79672
37.79672
37.61515
37.61515
37.61515
37.81701
37.81701
37.81701
37.81701
37.70294
37.70294
37.61518
37.61518
37.61518
37.81707
37.81707
37.81707
37.81707
37.60402
37.60402
37.60402
37.68256
37.68256
37.68256
37.68256
37.60409
37.60409
37.60409
38.37741
38.47243
38.47243
38.47243
38.58643
38.58643
38.58641
38.58641
38.70079
38.58644
38.58644
38.47244
38.47244
38.47244
38.70081
38.58644
38.58644
38.37743
38.29065
38.29065
38.63504
38.63504
38.63504
38.63504
38.59462
38.59462
38.59462
38.59462
38.59462
38.44084
38.44084
38.44084
38.59457
38.59457
38.59457
38.59457
38.59457
38.44087
38.44087
38.44087
38.29068
38.29068
38.34735
38.34735
38.34735
38.34735
38.55092
38.55092
38.55092
38.55092
38.55092
38.50062
38.50062
38.11501
38.11501
38.11501
38.55093
38.55093
38.55093
38.55093
38.55093
38.50066
38.50066
38.11505
38.11505
38.11505
38.00244
38.00244
38.00244
38.00244
38.15705
38.15705
38.15705
38.15705
38.10965
38.10965
38.10965
38.04594
38.04594
38.00252
38.00252
38.00252
38.00252
38.1571
38.1571
38.1571
38.1571
38.10973
38.10973
38.10973
38.19241
38.19241
38.19241
38.19241
38.19241
38.19241
38.19241
38.19241
37.9936
37.9936
37.9936
37.9936
37.80901
37.80901
37.80901
37.88489
37.88489
37.88489
37.88489
38.19246
38.19246
38.19246
38.19246
38.19246
38.19246
38.19246
38.19246
37.99371
37.99371
37.99371
37.99371
37.80912
37.80912
37.80912
37.96479
37.96479
37.96479
37.82008
37.82008
38.07542
38.07542
38.07542
38.07542
38.07542
38.07542
37.91808
37.91808
37.91808
37.81999
37.81999
38.0754
38.0754
38.0754
38.0754
38.0754
38.0754
37.91805
37.91805
37.91805
37.68232
37.68232
37.78592
37.64868
37.90135
37.90135
37.90135
37.90135
37.90135
37.90136
37.90136
37.90136
37.90136
37.90136
37.78586
37.64863
37.81705
37.81705
37.81705
37.81705
37.7967
37.7967
37.7967
37.7967
37.7967
37.61513
37.61513
37.61513
37.70298
37.70298
37.81715
37.81715
37.81715
37.81715
37.7968
37.7968
37.7968
37.7968
37.7968
37.61525
37.61525
37.61525
37.60404
37.60404
37.60404
37.68255
37.68255
37.49797
37.68175
37.68175
37.68175
37.68173
37.68173
37.68173
37.68181
37.68181
37.68181
37.49801
37.68179
37.68179
37.68179
37.68257
37.68257
37.45207
37.45202
38.37739
38.5864
38.5864
38.70078
38.47238
38.47238
38.47238
38.58639
38.58639
38.7008
38.58643
38.58643
38.58641
38.58641
38.47241
38.47241
38.47241
38.37742
38.29063
38.29063
38.63494
38.63494
38.63494
38.63494
38.59453
38.59453
38.59453
38.59453
38.59453
38.44087
38.44087
38.44087
38.63497
38.63497
38.63497
38.63497
38.59454
38.59454
38.59454
38.59454
38.59454
38.29066
38.29066
38.50061
38.50061
38.11498
38.11498
38.11498
38.34725
38.34725
38.34725
38.34725
38.55075
38.55075
38.55075
38.55075
38.55075
38.11504
38.11504
38.11504
38.34728
38.34728
38.34728
38.34728
38.55078
38.55078
38.55078
38.55078
38.55078
38.10962
38.10962
38.10962
38.04578
38.04578
38.00234
38.00234
38.00234
38.00234
38.15707
38.15707
38.15707
38.15707
38.1097
38.1097
38.1097
38.04584
38.04584
38.00242
38.00242
38.00242
38.00242
37.80897
37.80897
37.80897
37.8847
37.8847
37.8847
37.8847
38.19228
38.19228
38.19228
38.19228
38.19228
38.19228
38.19228
38.19228
37.99367
37.99367
37.99367
37.99367
37.8091
37.8091
37.8091
37.88481
37.88481
37.88481
37.88481
38.19231
38.19231
38.19231
38.19231
38.19231
38.19231
38.19231
38.19231
38.07534
38.07534
38.07534
38.07534
38.07534
38.07534
37.91802
37.91802
37.91802
37.96473
37.96473
37.96473
37.82003
37.82003
37.91796
37.91796
37.91796
37.96473
37.96473
37.96473
37.82
37.82
37.78587
37.64865
37.68228
37.68228
37.90121
37.90121
37.90121
37.90121
37.90121
37.9013
37.9013
37.9013
37.9013
37.9013
37.64855
37.68223
37.68223
37.61512
37.61512
37.61512
37.70286
37.70286
37.81699
37.81699
37.81699
37.81699
37.79673
37.79673
37.79673
37.79673
37.79673
37.61519
37.61519
37.61519
37.70299
37.70299
37.81701
37.81701
37.81701
37.81701
37.68251
37.68251
37.60402
37.60402
37.60402
37.68177
37.68177
37.68177
37.49796
37.68175
37.68175
37.68175
37.68173
37.68173
37.68173
37.68171
37.68171
37.68171
37.49803
37.60404
37.60404
37.60404
37.452
38.37739
38.3774
38.37662
38.32903
38.32903
38.32903
38.32903
38.44079
38.44079
38.44079
38.59447
38.59447
38.59447
38.59447
38.59447
38.63502
38.63502
38.63502
38.63502
38.44083
38.44083
38.44083
38.59457
38.59457
38.59457
38.59457
38.59457
38.32908
38.32908
38.32909
38.32909
38.24738
38.24738
38.5282
38.5282
38.5282
38.5282
38.37032
38.37032
38.52823
38.52823
38.52823
38.52823
38.52825
38.52825
38.52825
38.52825
38.37034
38.37034
38.2474
38.2474
38.31807
38.31807
38.27486
38.27486
38.27486
37.9727
37.9727
37.9727
38.45272
38.45272
38.45272
38.45271
38.45271
38.45271
38.27492
38.27492
38.27492
37.97278
37.97278
37.97278
38.15794
38.15794
38.15794
37.91952
37.91952
37.91952
38.25936
38.25936
38.25936
38.25936
38.04426
38.04426
38.04426
38.2594
38.2594
38.2594
38.2594
38.04435
38.04435
38.04435
37.91957
37.91957
37.91957
37.77586
37.77586
37.77586
38.02896
38.02896
38.02896
38.02896
37.91015
37.91015
37.91015
37.91015
38.02904
38.02904
38.02904
38.02904
38.02901
38.02901
38.02901
38.02901
37.91027
37.91027
37.91027
37.91027
38.02903
38.02903
38.02903
38.02903
37.6861
37.8649
37.8649
37.8649
37.68626
37.90128
37.90128
37.90128
37.90128
37.90128
37.90133
37.90133
37.90133
37.90133
37.90133
37.86488
37.86488
37.86488
37.68627
37.86488
37.86488
37.86488
37.68627
37.81707
37.81707
37.81707
37.81707
37.70291
37.70291
37.79674
37.79674
37.79674
37.79674
37.79674
37.6152
37.6152
37.6152
37.81704
37.81704
37.81704
37.81704
37.7967
37.7967
37.7967
37.7967
37.7967
37.70301
37.70301
37.61517
37.61517
37.61517
37.68252
37.68252
37.60405
37.60405
37.60405
38.2906
38.2906
38.29061
38.29061
38.24749
38.24749
38.50055
38.50055
38.55082
38.55082
38.55082
38.55082
38.55082
38.11499
38.11499
38.11499
38.3473
38.3473
38.3473
38.3473
38.55086
38.55086
38.55086
38.55086
38.55086
38.11501
38.11501
38.11501
38.24751
38.24751
38.31833
38.31833
37.97279
37.97279
37.97279
38.27517
38.27517
38.27517
38.04586
38.04586
38.15703
38.15703
38.15703
38.15703
38.00244
38.00244
38.00244
38.00244
38.10965
38.10965
38.10965
38.15704
38.15704
38.15704
38.15704
38.04588
38.04588
38.10967
38.10967
38.10967
38.00247
38.00247
38.00247
38.00247
38.2752
38.2752
38.2752
37.97286
37.97286
37.97286
38.15819
38.15819
38.15819
37.91963
37.91963
37.91963
38.19235
38.19235
38.19235
38.19235
38.19235
38.19235
38.19235
38.19235
37.88481
37.88481
37.88481
37.88481
37.99364
37.99364
37.99364
37.99364
37.80906
37.80906
37.80906
38.19238
38.19238
38.19238
38.19238
38.19238
38.19238
38.19238
38.19238
37.99364
37.99364
37.99364
37.99364
37.88485
37.88485
37.88485
37.88485
37.80907
37.80907
37.80907
37.91968
37.91968
37.91968
37.77588
37.77588
37.77588
38.07532
38.07532
38.07532
38.07532
38.07532
38.07532
37.81991
37.81991
37.91798
37.91798
37.91798
37.96475
37.96475
37.96475
37.91792
37.91792
37.91792
37.82001
37.82001
37.78579
37.64858
37.68223
37.68223
37.64852
37.78636
37.78636
37.78637
37.78637
37.78629
37.78629
)
;
        refGradient     uniform 0;
        valueFraction   nonuniform List<scalar> 
1228
(
0.3728183
0.3570388
0.456125
0.4584785
0.1450329
0.4407759
0.202841
0.402475
0.3749307
0.3673071
0.1043198
0.453334
0.4484676
0.4537796
0.3519363
0.3748516
0.3739564
0.4278627
0.7233456
0.4197593
0.5041911
0.5362914
0.5387117
0.5735135
0.6000745
0.5522824
0.5615569
0.5459027
0.2256138
0.3330238
0.5407556
0.5406831
0.3706317
0.6499769
0.2670803
0.2370126
0.498231
0.4661144
0.5999459
0.4246568
0.2361029
0.6627982
0.551867
0.2835283
0.5406488
0.5076032
0.3503648
0.2787041
0.5070174
0.3427575
0.3727362
0.3569531
0.4024137
0.2028416
0.3748534
0.3672405
0.3338523
0.3106214
0.2393863
0.416469
0.2429892
0.2370154
0.4982324
0.267908
0.3341589
0.3551684
0.3519233
0.3748499
0.3739548
0.4812285
0.2200653
0.4561085
0.4584728
0.4407535
0.1450304
0.104317
0.4533155
0.4484529
0.4537722
0.5567208
0.5958525
0.5958188
0.477636
0.5105292
0.4287964
0.141239
0.4661125
0.599936
0.2361025
0.4246563
0.6627974
0.4491432
0.1771485
0.2371056
0.283525
0.5406358
0.551855
0.5076001
0.2665736
0.7233348
0.4197524
0.4278583
0.5041864
0.3323334
0.3481571
0.3484008
0.3659814
0.3409458
0.3480817
0.1629316
0.4110004
0.3706268
0.649971
0.2670781
0.4725932
0.328966
0.2679078
0.3341586
0.3551681
0.4491423
0.1771483
0.3503582
0.5070058
0.3427516
0.2787012
0.4811858
0.2200609
0.3323231
0.3481291
0.3484085
0.3660176
0.3409464
0.3338468
0.3106187
0.2393831
0.5567156
0.5958401
0.5958038
0.5105257
0.477634
0.4287951
0.4109304
0.1629315
0.348083
0.416463
0.2429881
0.1412397
0.1969379
0.3074178
0.3074179
0.1969387
0.1859663
0.3110904
0.3262541
0.4045135
0.394601
0.3427663
0.2787668
0.3504402
0.5070533
0.2200802
0.4812445
0.4018667
0.5572392
0.4851738
0.695783
0.648898
0.3262562
0.3946038
0.4045203
0.220082
0.4812482
0.3427645
0.350445
0.2787691
0.5070658
0.6957729
0.4851726
0.6488939
0.4018629
0.5572341
0.1859719
0.3110971
0.3481599
0.3323394
0.311546
0.3136901
0.3333006
0.3751257
0.3706127
0.3950966
0.4584714
0.4561221
0.1450329
0.4407734
0.2130455
0.4169701
0.2238215
0.4120189
0.105499
0.1436917
0.1257418
0.3728257
0.3570442
0.1436917
0.105499
0.1257418
0.2238216
0.2130456
0.4169729
0.4120203
0.3481676
0.3323453
0.3751286
0.3706157
0.3950985
0.3136917
0.311552
0.3332975
0.36599
0.3484093
0.3409535
0.3147365
0.2709852
0.1890079
0.1043198
0.4533336
0.4537796
0.4484675
0.3986071
0.3866663
0.3612595
0.5704125
0.6502715
0.5262211
0.443757
0.6223376
0.7262828
0.5673881
0.7180829
0.202841
0.4024764
0.3749312
0.3673071
0.3866663
0.3986071
0.3612595
0.6502715
0.5704125
0.7262829
0.6223376
0.7180829
0.5673881
0.5262211
0.443757
0.3659914
0.3484093
0.3409535
0.3147365
0.2709852
0.1890079
0.1629335
0.3480843
0.4110049
0.3106291
0.3338518
0.2393852
0.5958229
0.5958624
0.5105326
0.5567275
0.4287987
0.4776394
0.1640309
0.2963291
0.287229
0.3345722
0.1785856
0.5958624
0.5958229
0.5567275
0.5105326
0.4776394
0.4287987
0.3106291
0.3338518
0.2393852
0.3345722
0.287229
0.1785856
0.1640309
0.2963291
0.4110049
0.1629335
0.3480843
0.4164401
0.2429881
0.1412397
0.3920032
0.1412397
0.2429881
0.4164401
0.3920032
0.1963651
0.1963669
0.3151052
0.3296924
0.2665736
0.3296969
0.3150862
0.3739554
0.3748498
0.3519364
0.3636982
0.5532705
0.6210422
0.5983029
0.6484362
0.5076012
0.2835265
0.5406369
0.5518584
0.5983079
0.3637098
0.6484553
0.5532899
0.621057
0.540642
0.2835395
0.5076088
0.5518747
0.315112
0.3297043
0.2665833
0.3296995
0.3150772
0.1859286
0.3110681
0.5041895
0.4278583
0.4197425
0.7233306
0.2744482
0.4097746
0.5043022
0.4197265
0.4278279
0.723323
0.2744524
0.4097821
0.4197124
0.5043023
0.4278337
0.723321
0.1859388
0.3110793
0.3116234
0.3137692
0.3333772
0.3481334
0.3323293
0.3751769
0.3706852
0.3951425
0.53872
0.536294
0.5735146
0.3137702
0.3116291
0.333374
0.3481493
0.332335
0.3751795
0.3706864
0.3951436
0.3660268
0.3484172
0.3409537
0.3147283
0.2709718
0.1890075
0.3861597
0.4143855
0.3498658
0.6000789
0.5615503
0.5522831
0.545904
0.4143867
0.3861604
0.3498658
0.3660274
0.3484177
0.3409537
0.3147283
0.2709718
0.1890075
0.1629335
0.410936
0.348087
0.5252861
0.6368672
0.5484956
0.5001364
0.5252878
0.6367979
0.5483453
0.5001345
0.5407556
0.3330238
0.2256138
0.5406836
0.6368672
0.5001364
0.5252861
0.5484956
0.5252878
0.6367982
0.5483453
0.5001345
0.348087
0.1629335
0.4109364
0.6499769
0.3706317
0.2670803
0.205218
0.6500013
0.3706298
0.2670848
0.2052211
0.6989147
0.3832091
0.4681547
0.5874229
0.804327
0.6989147
0.804327
0.5874229
0.4681547
0.3832091
0.205218
0.3706298
0.2670848
0.6500013
0.2052211
0.4246568
0.5999459
0.4661144
0.2361029
0.6627982
0.1437962
0.4710378
0.3868811
0.4739038
0.5991213
0.3851856
0.7470368
0.2370126
0.498231
0.1437962
0.4710378
0.3868811
0.5991213
0.4739038
0.7470368