/*--------------------------------*- C++ -*----------------------------------*\
| =========                 |                                                 |
| \\      /  F ield         | OpenFOAM: The Open Source CFD Toolbox           |
|  \\    /   O peration     | Version:  5.x                                   |
|   \\  /    A nd           | Web:      www.OpenFOAM.org                      |
|    \\/     M anipulation  |                                                 |
\*---------------------------------------------------------------------------*/
FoamFile
{
    version     2.0;
    format      ascii;
    class       volScalarField;
    location    "10/tissue";
    object      T;
}
// * * * * * * * * * * * * * * * * * * * * * * * * * * * * * * * * * * * * * //

dimensions      [0 0 0 1 0 0 0];

internalField   nonuniform List<scalar> 
87936
(
32.97362
33.27215
33.29003
33.22466
32.96627
33.25659
33.27497
33.20811
32.95753
33.2249
33.24292
33.17488
32.96192
33.1837
33.20032
33.13015
33.13294
33.1511
32.96017
33.07832
33.10143
32.89158
33.02068
33.05815
32.85206
32.86454
33.02678
32.86912
33.42464
33.91065
34.29503
34.60608
34.66122
34.47576
34.16908
33.50038
33.09703
33.40227
33.87362
34.26867
34.57221
34.62775
34.4426
34.13948
33.48925
33.12119
33.25144
33.7738
34.21702
34.50383
34.56014
34.37382
34.07518
33.4655
33.13236
33.63004
34.15771
34.41452
34.47214
34.28557
33.98738
33.47624
33.0551
33.51847
34.09204
34.3134
34.37344
34.19503
33.89425
33.43477
32.98771
33.42643
34.00136
34.20607
34.27037
34.09739
33.79901
33.372
32.92598
33.34616
33.89465
34.09337
34.1611
34.00464
33.69504
33.30044
32.86657
33.27403
33.77829
33.98101
34.03352
33.90724
33.57341
33.21572
32.81298
33.22003
33.65526
33.8613
33.89748
33.78627
33.39195
33.10994
33.20349
33.53332
33.74528
33.78271
33.66602
33.27866
32.93098
33.12014
33.39462
33.63369
33.67099
33.5492
33.18473
32.81379
33.01273
33.24214
33.52841
33.56781
33.4265
33.14781
32.72356
32.90664
33.14049
33.41888
33.46655
33.24925
33.05894
32.6705
32.7185
33.07817
33.2828
33.34992
33.12857
32.9574
32.6262
32.94332
33.09959
33.14298
33.02713
32.83558
32.89549
33.01107
33.0363
32.96889
32.66707
32.69342
32.81328
32.59901
33.72333
34.59063
35.23722
35.87707
36.1294
36.13819
35.97659
35.51235
34.95917
34.24081
33.35003
33.70156
34.5486
35.18503
35.78261
36.00949
36.01582
35.88017
35.45101
34.91622
34.22574
33.33326
33.65784
34.48609
35.0918
35.6332
35.83524
35.8401
35.7222
35.34286
34.8441
34.19411
33.30418
33.60235
34.40508
34.98876
35.49499
35.65581
35.66278
35.59865
35.22303
34.76358
34.1314
33.26217
33.5406
34.31849
34.88747
35.30121
35.53571
35.56443
35.48824
35.10667
34.67503
34.05275
33.20931
33.47535
34.22927
34.79157
35.16652
35.40407
35.42761
35.35661
34.99077
34.58128
33.96336
33.14788
33.40835
34.13033
34.68869
35.04456
35.29007
35.28605
35.19055
34.87597
34.46235
33.84857
33.07272
33.34069
34.02146
34.5853
34.93326
35.135
35.15439
35.04923
34.76866
34.33716
33.65544
32.96276
33.30278
33.92282
34.48438
34.82807
35.00807
35.02299
34.94072
34.66921
34.21117
33.53489
32.879
33.22154
33.84042
34.3836
34.72319
34.9153
34.9324
34.84214
34.57722
34.10017
33.42004
32.82765
33.07037
33.74295
34.26662
34.61721
34.8225
34.84536
34.74138
34.47563
33.99289
33.32376
32.94977
33.59358
34.14054
34.51916
34.72074
34.75082
34.63602
34.37175
33.87764
33.24176
32.82337
33.41393
34.00824
34.41104
34.60493
34.64034
34.52481
34.24256
33.76609
33.19065
32.75411
33.27852
33.88841
34.27926
34.48419
34.51814
34.40625
34.10202
33.6563
33.10649
33.15525
33.76481
34.13406
34.34808
34.37958
34.26417
33.96023
33.49601
32.91724
33.14257
33.60436
33.95186
34.16153
34.1914
34.07742
33.80781
33.30527
32.78604
32.75988
33.22374
33.67517
33.84008
33.86086
33.76898
33.50497
33.11164
32.98211
33.24285
33.49588
33.53079
33.41577
33.10348
32.66227
32.56448
32.93756
33.03302
33.0658
33.06579
32.83266
32.69022
32.72575
32.58545
33.26214
34.19197
35.09366
35.97515
36.3739
35.69746
34.57855
33.65215
33.24812
34.12701
35.05266
35.88226
36.20691
35.63055
34.54243
33.64668
33.2094
34.01693
34.97655
35.7303
36.0155
35.52792
34.47495
33.6509
33.92233
34.88614
35.58516
35.85947
35.39942
34.39542
33.53749
33.83302
34.79506
35.49644
35.75715
35.29112
34.31514
33.43575
33.74556
34.70338
35.37683
35.72576
35.57144
35.16019
34.23588
33.34268
33.65867
34.60691
35.29352
35.63729
35.45659
34.9911
34.15254
33.25856
33.5758
34.51296
35.20376
35.56585
35.36177
34.84624
34.06953
33.18067
33.49166
34.41745
35.11708
35.49246
35.28611
34.74045
33.98398
33.1001
33.40459
34.30366
35.01696
35.34876
35.51411
35.19562
34.64188
33.88531
33.01469
33.32162
34.16998
34.91317
35.26891
35.43554
35.1339
34.53551
33.75479
32.92398
33.27165
34.04885
34.73548
35.20981
35.4811
35.34456
35.05955
34.42801
33.60977
32.84533
33.13458
33.93491
34.61313
35.12063
35.3335
35.44188
35.25174
34.9537
34.32146
33.48463
33.01658
33.8181
34.50317
35.05804
35.26764
35.42553
35.32757
35.18164
34.80506
34.20063
33.36642
32.88802
33.67414
34.3826
34.96314
35.21392
35.29339
35.30448
35.27199
35.11012
34.65536
34.05865
33.25347
32.8064
33.49418
34.22452
34.74006
35.0393
35.17545
35.1552
35.14943
34.97043
34.48543
33.88927
33.22697
33.20931
33.89654
34.40782
34.84317
34.97763
34.97084
34.94677
34.63382
34.19439
33.53167
32.85308
32.87517
33.49284
34.05307
34.4255
34.5874
34.60008
34.52597
34.28271
33.83778
33.20734
33.13781
33.66051
34.03583
34.20369
34.21957
34.14703
33.8647
33.40117
32.83754
32.70557
33.20314
33.60858
33.77644
33.80878
33.71424
33.37186
33.05823
32.72084
33.09389
33.26958
33.38267
33.20587
33.00661
32.63683
32.87219
32.92744
32.76314
34.28702
35.608
36.39335
35.95834
34.93275
33.65009
34.2155
35.53267
36.22586
35.8635
34.88004
33.62693
34.10832
35.40161
36.03329
35.70891
34.78929
33.59219
34.04638
35.26057
35.85582
35.5573
34.69346
33.53049
33.97359
35.13067
35.76409
35.45428
34.59099
33.4556
33.88847
34.9587
35.61906
35.33079
34.48005
33.38181
33.80198
34.81373
35.53442
35.23697
34.3745
33.30788
33.71371
34.70768
35.462
35.14996
34.27138
33.23086
33.61586
34.61137
35.3913
35.07138
34.15804
33.14521
33.52042
34.51972
35.26537
35.49864
34.98901
34.05323
33.06188
33.43127
34.42395
35.15957
35.412
34.89424
33.94679
32.98857
33.34545
34.31178
35.10373
35.38487
34.79199
33.80839
32.9093
33.20369
34.19987
35.00715
35.28739
34.62071
33.66551
33.09521
34.08415
34.92855
35.40257
35.18525
34.50096
33.55645
32.97348
33.94121
34.82457
35.35748
35.09958
34.38093
33.42888
32.88153
33.7149
34.60942
35.17658
35.40679
34.97491
34.21176
33.32816
33.46346
34.31556
34.98407
35.37679
35.15569
34.71945
33.90699
33.05066
33.23218
33.98094
34.70784
35.07093
35.38837
35.25298
34.91593
34.33337
33.53652
32.74173
32.80435
33.56208
34.26659
34.78523
35.03567
35.17382
35.11607
35.1434
34.96254
34.52954
33.9562
33.20184
33.17041
33.83408
34.33206
34.66452
34.89662
34.89959
34.83582
34.51313
34.11844
33.49949
32.78437
32.75111
33.36571
33.92161
34.22767
34.40572
34.43018
34.33913
34.07315
33.70069
33.16553
32.87651
33.37449
33.72556
33.89114
33.93897
33.84151
33.60232
33.17712
32.87859
33.15354
33.29641
33.4131
33.26425
33.09258
32.68021
32.62631
32.78352
32.83678
32.75757
34.14598
35.56384
36.20149
34.80637
33.54235
34.12626
35.49778
36.06211
34.78057
33.52028
34.08039
35.39967
35.89024
34.73418
33.47892
34.01692
35.2845
35.74025
34.66928
33.42223
33.94266
35.19486
35.63433
34.592
33.35589
33.8629
35.09081
35.51661
34.50848
33.28714
33.77347
34.98844
35.39095
34.41618
33.2184
33.66957
34.88819
35.52165
35.23538
34.30389
33.12863
33.56084
34.68739
35.43519
35.12778
34.16249
33.04068
33.45762
34.55509
35.36597
35.03566
34.02912
32.96948
33.30982
34.43568
35.29922
34.94323
33.87023
33.21432
34.32238
35.25934
34.8658
33.71918
33.1238
34.23177
35.17827
34.78405
33.63413
33.03184
34.1431
35.04779
35.33194
34.69522
33.54591
32.929
33.9965
34.96154
35.27528
34.51327
33.4322
32.79495
33.75206
34.81794
35.1735
34.34103
33.32713
33.52059
34.6064
35.27405
34.93942
34.09127
33.06016
33.13552
34.20486
34.97503
35.28894
34.66226
33.67036
32.83935
33.76153
34.68277
35.20532
35.39456
34.97648
34.23636
33.3559
33.39469
34.21894
34.89168
35.32638
35.09433
34.64648
33.8635
32.976
32.94029
33.69783
34.43784
34.92653
35.16842
35.26528
35.24732
35.25384
35.0492
34.75803
34.14002
33.39028
33.27892
33.93728
34.45681
34.80103
34.91886
34.91888
34.89662
34.60796
34.22829
33.61564
32.87489
32.76462
33.37632
33.90015
34.23884
34.38105
34.39551
34.34358
34.07669
33.59671
33.14845
32.80072
33.33346
33.67085
33.82318
33.83968
33.76701
33.47545
33.14423
32.72635
33.10072
33.19897
33.21786
33.12985
32.91364
32.62313
32.70604
33.76312
35.47001
36.1018
34.5868
33.74315
35.4136
35.98138
34.55946
33.70546
35.30885
35.81539
34.50398
33.65436
35.1928
35.66893
34.42855
33.59551
35.08083
35.5615
34.33685
33.53184
34.96166
35.42933
34.21898
33.4513
34.73894
35.28698
34.01431
33.39018
34.59969
35.49088
35.14067
33.91482
33.30728
34.4858
35.42064
35.05287
33.81912
33.21956
34.38081
35.34769
34.96296
33.74898
33.13896
34.30457
35.2701
34.87517
33.68916
33.05133
34.22816
35.22934
34.80836
33.6064
32.96653
34.13765
35.15085
34.7285
33.50928
33.98518
35.00925
35.33507
34.62508
33.3463
33.75
34.91834
35.27072
34.42147
33.21214
33.6455
34.76881
35.16248
34.25505
33.14208
33.42552
34.5532
35.31659
34.94718
34.01674
32.84529
33.09551
34.18302
35.13133
34.71582
33.64832
32.73305
33.7756
34.79881
35.16669
34.32345
33.31053
33.42011
34.39592
35.10229
35.37923
34.82053
33.93782
32.92676
32.98231
33.95375
34.77128
35.34392
35.04819
34.39821
33.48822
33.46492
34.30263
34.95429
35.36897
35.15305
34.69642
33.93922
33.01277
32.91866
33.72406
34.44201
34.92735
35.14992
35.25453
35.24239
35.25068
35.02959
34.73378
34.1512
33.40142
33.20237
33.90584
34.39004
34.72755
34.86606
34.86032
34.8434
34.52983
34.17335
33.54992
32.80701
33.25793
33.76539
34.06404
34.25642
34.28716
34.17933
33.92627
33.5016
32.89087
33.12957
33.39106
33.60577
33.64106
33.47358
33.24987
32.79732
32.71901
32.90805
32.96935
32.8459
33.56213
34.83709
36.30429
35.63473
34.16053
33.53853
34.80541
36.15999
35.56624
34.14138
33.49794
34.74371
35.97629
35.45222
34.09726
33.44922
34.67044
35.79886
35.32585
34.03871
33.39198
34.5999
35.69737
35.23584
33.97142
33.31695
34.52942
35.57618
35.13406
33.8872
33.25707
34.45799
35.49302
35.05586
33.79488
34.37741
35.40371
34.97244
33.66032
34.28461
35.34146
34.89793
33.56536
34.1559
35.25676
34.80258
33.47074
33.94798
35.17549
34.69642
33.36483
33.83955
35.06811
34.54302
33.28333
33.73248
34.92668
35.31303
34.38227
33.18996
33.64756
34.84795
35.24869
34.27584
33.0823
33.55606
34.77288
35.211
34.19044
32.97321
33.39632
34.63445
35.06955
34.05279
33.14835
34.31133
35.25007
34.84038
33.7115
32.8135
34.03126
35.07446
34.61843
33.43666
33.63657
34.73346
35.14315
34.23057
33.0889
33.21394
34.30875
35.22364
34.82604
33.78215
32.80856
33.82351
34.85413
35.23489
34.49076
33.40199
33.40088
34.38393
35.1913
34.81526
33.93893
32.92027
32.85278
33.81424
34.70495
35.32002
35.0051
34.29719
33.40906
33.3447
34.1598
34.8038
35.23951
35.33441
35.02397
34.47743
33.72392
32.85356
32.75199
33.5458
34.20416
34.7506
34.98044
35.08533
35.11868
35.04791
34.8536
34.46439
33.91842
33.18398
32.87189
33.54857
34.07606
34.39213
34.52975
34.54213
34.49166
34.25827
33.86204
33.26372
32.83375
33.37805
33.70566
33.8475
33.88097
33.79697
33.51611
33.14481
32.67945
32.99406
33.13385
33.15999
33.10471
32.86232
33.45476
34.53801
36.10279
35.43774
33.80332
33.43611
34.50846
35.98645
35.38088
33.78601
33.3994
34.44085
35.82191
35.27379
33.74531
33.34514
34.32346
35.64456
35.12893
33.69177
33.27038
34.19611
35.52414
35.01126
33.61415
33.19785
34.08714
35.38435
34.79744
33.53339
33.12836
34.00462
35.28144
34.65272
33.44084
33.93506
35.18454
34.55677
33.32725
33.85236
35.09131
34.46856
33.23012
33.75938
34.96403
35.38224
34.37936
33.13914
33.66736
34.87044
35.28742
34.29154
33.05263
33.57826
34.80195
35.24152
34.18657
32.9704
33.42623
34.71202
35.16621
33.99297
33.32009
34.61687
35.09456
33.87582
33.19006
34.45674
35.00917
33.7507
33.07428
34.26704
35.28511
34.82673
33.66555
33.93439
35.08694
34.60561
33.34669
33.65465
34.80675
35.25698
34.27405
33.06838
33.30793
34.54328
35.0132
33.89981
32.95266
34.15104
35.12699
34.67601
33.58175
33.70308
34.73889
35.17807
34.26302
33.14541
33.20475
34.28192
35.18345
34.76403
33.76613
32.73116
33.77115
34.75008
35.14253
34.29066
33.31997
33.30894
34.24542
34.97898
35.32109
34.67227
33.74864
32.74313
33.62409
34.42332
35.02774
35.32857
34.78486
34.07324
33.12125
32.96895
33.75497
34.45746
34.9533
35.20854
35.28304
35.26888
35.26652
35.08447
34.76155
34.16547
33.43457
33.16344
33.84549
34.31503
34.58646
34.80394
34.806
34.75132
34.46939
34.05889
33.49951
32.75933
33.1397
33.5194
33.90874
34.08956
34.09953
34.02344
33.77543
33.35065
32.76201
32.76102
33.11163
33.25451
33.26503
33.21726
33.02409
33.50478
34.33134
35.51636
36.25209
34.76821
33.86352
33.49043
34.31155
35.46085
36.1158
34.74065
33.85024
33.46156
34.27092
35.3612
35.93775
34.68581
33.81795
33.41947
34.21875
35.24962
35.76981
34.62025
33.77241
33.36669
34.16079
35.15244
35.65772
34.5523
33.71728
33.30508
34.09133
35.0625
35.56195
34.47061
33.65306
33.23663
34.00705
34.96788
35.48232
34.36804
33.58333
33.16064
33.88498
34.85985
35.36617
34.26494
33.50658
33.07818
33.73895
34.72047
35.25224
34.15198
33.40963
33.63058
34.58671
35.1637
34.04217
33.30098
33.53041
34.47876
35.06937
33.93659
33.20215
33.43697
34.36815
34.99093
33.82825
33.10498
33.34301
34.26936
35.2873
34.8651
33.65528
33.00629
33.23449
34.17972
35.2175
34.78611
33.54891
32.91489
33.0926
34.05779
35.15426
34.69314
33.41882
32.96491
33.87272
35.02306
34.53183
33.32139
33.6266
34.7594
35.21938
34.19606
33.01265
33.303
34.55773
35.05661
33.85785
32.93705
34.18312
35.17319
34.71887
33.57739
33.79111
34.92626
34.43
33.18115
33.35029
34.55311
35.0497
33.93352
32.91878
34.12275
35.10434
34.65086
33.54777
33.59901
34.6718
35.10764
34.15735
33.02484
33.0573
34.14833
34.97427
35.33197
34.6069
33.60412
33.58279
34.54115
35.27936
34.88055
34.06101
33.02954
32.91421
33.82644
34.67941
35.29182
34.97341
34.27299
33.43909
33.25875
34.01898
34.70202
35.09459
35.32075
35.24799
34.93008
34.36223
33.63507
32.74739
33.34651
33.97897
34.43509
34.78994
34.92114
34.8893
34.88965
34.68817
34.2707
33.63675
32.92361
33.19331
33.61421
34.00872
34.13995
34.13703
34.10863
33.87949
33.4637
32.87022
32.93429
33.19701
33.30931
33.32952
33.26677
33.06583
32.70662
33.5643
34.39442
35.3137
36.29103
35.86183
34.85251
33.90029
33.22943
33.5561
34.37869
35.27029
36.15563
35.78311
34.82628
33.89747
33.2304
33.52414
34.34263
35.1931
35.98347
35.65981
34.77424
33.87508
33.47319
34.29038
35.10612
35.82225
35.53073
34.70814
33.83185
33.41448
34.22723
35.02294
35.73476
35.44783
34.63603
33.77432
33.34958
34.15618
34.93769
35.63167
35.34952
34.55858
33.70801
33.27971
34.07851
34.84726
35.55215
35.26753
34.47514
33.63531
33.20566
33.99298
34.74473
35.45894
35.17836
34.38066
33.55743
33.12865
33.89015
34.63314
35.38056
35.08147
34.2655
33.4771
33.04803
33.71504
34.52868
35.28482
34.97575
34.14361
33.39545
33.62053
34.41142
35.17501
34.75807
34.03921
33.27667
33.52054
34.30998
35.11705
34.64691
33.94046
33.1793
33.42496
34.21087
35.03214
34.54911
33.84224
33.0818
33.3316
34.08932
34.92384
35.35271
34.44443
33.70861
32.98544
33.20278
33.97562
34.85189
35.28818
34.33926
33.54405
32.87657
33.10507
33.82382
34.68931
35.16501
34.16096
33.4408
33.49723
34.39944
34.94063
33.86949
33.14626
33.15588
34.105
35.15483
34.69855
33.50806
33.76018
34.9112
34.43045
33.12439
33.35349
34.58126
35.0741
33.95768
32.94422
34.18519
35.19023
34.71834
33.60267
33.73726
34.8272
35.25214
34.38038
33.10887
33.20416
34.44094
35.28163
34.86513
33.79586
33.81541
34.86543
35.26368
34.45344
33.25078
33.25956
34.44043
35.254
34.81063
33.80581
33.75069
34.68096
35.33516
35.01612
34.21531
33.192
33.10202
34.1193
34.83978
35.33298
35.10565
34.54501
33.60851
33.41401
34.18425
34.79244
35.19471
35.31058
35.00813
34.5526
33.78536
32.88831
33.44463
34.03573
34.51036
34.84216
34.94694
34.91968
34.90596
34.72124
34.31704
33.73525
33.00203
33.26099
33.81155
34.0772
34.21224
34.24198
34.15295
33.93491
33.50756
32.91996
32.98923
33.21732
33.34449
33.37229
33.28814
33.07747
32.70102
33.63772
34.51665
35.38195
36.33329
35.89756
34.9332
34.10441
33.2716
33.63359
34.47501
35.33304
36.19218
35.81809
34.89509
34.07339
33.2577
33.59771
34.41187
35.24899
36.01817
35.69265
34.8306
33.95593
33.24423
33.52588
34.34324
35.15637
35.85314
35.56124
34.75538
33.89267
33.44456
34.26721
35.06847
35.76921
35.4765
34.67612
33.81326
33.37015
34.1908
34.98271
35.66681
35.37805
34.59634
33.7379
33.29787
34.11368
34.89619
35.57147
35.28863
34.51565
33.66327
33.22442
34.03371
34.80337
35.43975
35.65935
35.17775
34.43109
33.58673
33.14905
33.94828
34.69924
35.32908
35.59571
35.03241
34.33792
33.50748
33.07267
33.84514
34.57318
35.25338
35.52314
34.91236
34.21888
33.42768
32.98587
33.67491
34.47161
35.18579
35.44494
34.82671
34.09979
33.3419
33.57971
34.3807
35.11121
35.39598
34.7411
34.00289
33.22888
33.47203
34.28353
35.01682
35.30557
34.64435
33.9005
33.11823
33.36763
34.16751
34.85732
35.22995
34.52071
33.78348
33.01406
33.25465
34.02631
34.74813
35.38982
35.14438
34.39708
33.58988
32.89306
33.15519
33.88294
34.609
35.26319
35.005
34.25467
33.49154
32.83237
33.55177
34.32848
35.07604
34.75247
33.96564
33.20239
33.23579
33.97764
34.79982
35.28143
34.31837
33.57311
32.84595
32.85297
33.56369
34.52672
35.02513
33.94371
33.23684
33.18762
34.12134
35.19535
34.70513
33.52872
32.82831
33.73756
34.87873
34.37406
33.09404
33.26665
34.48522
34.9904
33.84391
33.92464
35.06227
34.55901
33.33719
33.48755
34.58899
35.06858
34.09762
32.82673
32.89467
34.10552
35.04554
34.5917
33.56326
33.52013
34.5344
35.30026
34.91908
34.07763
32.90293
32.79268
33.8532
34.81297
35.22927
34.44793
33.44169
33.17315
34.167
34.88141
35.22572
34.57143
33.71582
33.45111
34.20489
34.80599
35.27701
35.01699
34.55806
33.81678
32.94274
33.45276
34.0456
34.63817
34.87908
34.96188
35.0139
34.94358
34.76455
34.33745
33.74697
33.00692
33.24689
33.7912
34.06344
34.19058
34.20525
34.13577
33.92197
33.49265
32.90664
32.79886
33.15579
33.28089
33.29433
33.24044
33.01701
33.56437
34.51672
35.42837
36.35588
35.93139
34.97336
34.04068
33.5562
34.47506
35.37545
36.21281
35.8466
34.93121
33.95353
33.52435
34.41194
35.28418
36.04144
35.72757
34.85585
33.91514
33.47352
34.3437
35.18452
35.8828
35.5962
34.77382
33.85975
33.41485
34.26796
35.09088
35.78407
35.49956
34.68886
33.79654
33.34999
34.19147
35.00284
35.68219
35.39937
34.60683
33.727
33.28011
34.1141
34.91965
35.59744
35.31513
34.52707
33.65355
33.20602
34.03409
34.83568
35.51652
35.22634
34.44601
33.57612
33.12892
33.94868
34.74668
35.41462
35.62141
35.13137
34.35966
33.49564
33.04819
33.84547
34.63251
35.29861
35.54884
34.98996
34.24897
33.41713
33.67506
34.50599
35.2194
35.48861
34.86917
34.11714
33.30934
33.57985
34.41035
35.16199
35.44499
34.78214
34.0197
33.20769
33.47215
34.31277
35.07289
35.36436
34.68915
33.91545
33.10444
33.36773
34.20102
34.97755
35.48448
35.24161
34.58438
33.7974
33.00429
33.25478
34.05478
34.80365
35.42926
35.15771
34.4423
33.60189
32.88683
33.15524
33.92399
34.65055
35.31483
35.0012
34.29965
33.5052
32.83257
33.57392
34.36385
35.02445
35.34299
34.70615
33.99818
33.22594
33.25884
34.01135
34.70209
35.35267
35.06366
34.37096
33.5976
32.86062
32.86991
33.60544
34.3673
35.09282
34.77972
34.01397
33.27031
33.24459
33.95728
34.77994
35.2624
34.30179
33.57549
32.85136
32.81411
33.52606
34.48135
34.95396
33.9072
33.1771
33.07855
33.98105
35.06683
34.56548
33.45047
33.54917
34.61932
35.15647
34.04771
32.87447
32.9802
34.18134
35.19158
34.72844
33.60944
33.6953
34.72
35.20084
34.3097
33.00998
33.03943
34.18805
35.16377
34.71291
33.69052
33.6167
34.59071
35.0662
34.14477
33.00931
32.86458
33.94667
34.8243
35.22104
34.47251
33.51591
33.30651
34.1813
34.86698
35.21383
34.57402
33.74734
32.73845
33.44932
34.19664
34.79339
35.26675
35.00645
34.55827
33.80951
32.95041
33.42944
34.01261
34.46133
34.81645
34.88946
34.87335
34.86873
34.69485
34.28748
33.71798
32.98777
33.17778
33.58222
33.95252
34.11049
34.10924
34.06559
33.84312
33.44236
32.84899
32.72264
33.06621
33.22947
33.2422
33.16515
32.9721
33.50481
34.39446
35.382
36.35592
35.91593
34.88705
33.88826
33.49047
34.37873
35.33307
36.21287
35.83133
34.85738
33.87765
33.46164
34.34263
35.24896
36.04161
35.7059
34.80265
33.84873
33.41957
34.29029
35.15632
35.88308
35.5805
34.73394
33.80465
33.36679
34.22711
35.06845
35.78439
35.49089
34.65934
33.74877
33.30515
34.15612
34.98277
35.6825
35.39211
34.58077
33.684
33.23669
34.07846
34.89627
35.59772
35.30621
34.49748
33.61267
33.16071
33.99298
34.8034
35.51671
35.20876
34.40643
33.53614
33.07832
33.89019
34.69929
35.41474
35.11547
34.30081
33.45816
33.7151
34.57323
35.29869
35.55502
34.94902
34.17277
33.35241
33.62058
34.47165
35.21951
35.48255
34.84974
34.07119
33.24744
33.52058
34.38074
35.1621
35.44193
34.76422
33.97561
33.14654
33.42499
34.28357
35.07304
35.36702
34.67059
33.87713
33.05339
33.33165
34.16744
34.97789
35.51059
35.25419
34.56044
33.76315
32.95621
33.20287
34.02627
34.80445
35.44572
35.17615
34.42387
33.57233
33.10516
33.88309
34.65119
35.31422
35.01301
34.27993
33.47215
33.55189
34.36405
35.07282
35.37358
34.72218
33.98404
33.18373
33.23594
34.01154
34.73834
35.34909
35.08053
34.38331
33.58858
32.83193
32.85311
33.60593
34.42161
35.06486
35.37514
34.8087
34.03387
33.25904
33.24479
34.00161
34.67385
35.33133
35.03957
34.35259
33.58973
32.84131
32.81422
33.55242
34.29712
35.0423
34.71028
33.93978
33.20507
33.12375
33.87333
34.66123
35.18411
34.21636
33.48782
33.34333
34.20175
35.19754
34.72935
33.65699
32.93506
33.74361
34.82868
34.34473
33.07258
33.13159
34.35236
34.87431
33.7786
33.77672
34.85719
34.35808
33.12763
33.13203
34.31874
35.1966
34.74238
33.76211
33.67266
34.65237
35.10379
34.16359
33.09859
32.9085
34.05833
34.8289
35.20831
34.49057
33.51662
33.22006
34.16496
34.86144
35.21453
34.55684
33.72824
33.41349
34.16586
34.75556
35.12363
35.26124
34.95314
34.52544
33.77863
32.90008
33.36016
33.95288
34.38972
34.73391
34.88139
34.84323
34.82361
34.63018
34.20595
33.63127
32.93005
33.08681
33.49307
33.86272
34.05717
34.07646
33.95423
33.73192
33.31556
32.76838
32.93115
33.11561
33.13455
33.04575
32.76272
33.45476
34.33134
35.31371
36.33331
35.87634
34.80639
33.83557
33.43612
34.31155
35.27033
36.19221
35.79749
34.77934
33.8205
33.39939
34.2709
35.19317
36.01822
35.67444
34.72651
33.78487
33.3451
34.2187
35.10624
35.8532
35.54515
34.66164
33.73673
33.27033
34.16074
35.02304
35.76927
35.46082
34.59293
33.68117
33.19783
34.0913
34.93773
35.66687
35.35715
34.51784
33.61085
33.12834
34.00705
34.84728
35.57152
35.2476
34.43405
33.53178
33.88498
34.74474
35.43977
35.11077
34.33305
33.44623
33.73894
34.63315
35.32909
35.59509
34.98015
34.21825
33.3406
33.63057
34.52869
35.2534
35.53428
34.87946
34.10982
33.24318
33.53041
34.41144
35.18581
35.47301
34.79363
33.99789
33.14475
33.43698
34.30999
35.11124
35.41464
34.70819
33.89717
33.0404
33.34302
34.21088
35.01684
35.30377
34.61586
33.79134
32.94624
33.2345
34.08933
34.85732
35.48458
35.20453
34.50246
33.61361
33.09262
33.97562
34.74808
35.42939
35.13681
34.39477
33.49021
32.96492
33.82388
34.60894
35.31495
34.9957
34.22726
33.39014
33.49726
34.32849
35.02451
35.34603
34.67754
33.92141
33.09287
33.15595
33.97764
34.7022
35.34925
35.04349
34.36476
33.5415
33.56374
34.36734
35.06501
35.40977
34.70604
33.98964
33.18456
33.18776
33.95735
34.67405
35.30493
35.01482
34.33848
33.55833
33.52619
34.29706
34.95742
35.26623
34.62368
33.92751
33.15328
33.07872
33.87354
34.53201
35.21697
34.88608
34.22793
33.48002
33.34336
34.03352
34.77911
35.24497
34.35928
33.66924
32.92116
33.52947
34.41641
34.89035
33.90211
33.1419
32.91943
33.89448
34.89723
34.41517
33.33592
33.29093
34.46208
34.93849
33.85913
33.84523
34.90126
34.4519
33.22473
33.18193
34.34173
35.17993
34.73371
33.83045
33.64097
34.60701
35.09811
34.14629
33.07884
32.81516
33.93602
34.78795
35.17931
34.4501
33.52436
33.13406
34.1098
34.80594
35.2734
35.10191
34.51362
33.6493
33.29823
34.09429
34.65683
35.02144
35.26645
35.16809
34.84172
34.36254
33.69035
32.76633
33.16663
33.74511
34.26114
34.52016
34.77105
34.77716
34.70884
34.40363
34.05201
33.50235
32.75387
32.82773
33.31866
33.59856
33.84798
33.85234
33.79806
33.48573
33.12661
32.71641
32.88997
32.91117
32.85419
33.56244
34.53792
35.51624
36.291
35.90575
34.99166
34.03399
33.5389
34.50823
35.4607
36.1556
35.81812
34.95388
34.01285
33.49834
34.44058
35.36103
35.98343
35.68781
34.87692
33.96555
33.44957
34.32337
35.24946
35.82222
35.55663
34.77405
33.9029
33.39218
34.19617
35.15235
35.73475
35.47574
34.671
33.78215
33.31704
34.08717
35.06245
35.63166
35.36818
34.57584
33.68601
33.25711
34.00463
34.96786
35.55214
35.28189
34.48169
33.58873
33.93507
34.85984
35.45893
35.18115
34.39904
33.51481
33.85236
34.72046
35.38056
35.06779
34.30385
33.42695
33.75939
34.58671
35.28483
35.50207
34.98553
34.19653
33.33531
33.66737
34.47877
35.17502
35.40728
34.89813
34.08426
33.24029
33.57828
34.36817
35.11706
35.36843
34.80211
33.92875
33.16201
33.42627
34.26937
35.03214
35.3048
34.71961
33.8381
33.08723
33.32017
34.17971
34.92383
35.22756
34.62956
33.73452
33.19024
34.05767
34.85186
35.38983
35.15532
34.45409
33.61769
33.0745
33.87275
34.68927
35.26321
35.00324
34.27944
33.50758
33.62668
34.39946
35.07605
35.3449
34.77039
34.02422
33.20566
33.30322
34.10492
34.79978
35.35273
35.09897
34.5187
33.72155
32.9374
33.76033
34.52674
35.09286
35.35753
34.81177
34.12723
33.33963
33.35394
34.12119
34.7799
35.3314
35.07039
34.51242
33.76168
32.96271
32.94498
33.73787
34.48138
35.04247
35.29789
34.75312
34.09525
33.32784
33.26737
33.98128
34.6613
35.21695
34.96261
34.41322
33.67947
33.5495
34.20168
34.77902
35.10089
34.5299
33.87399
33.12102
32.98024
33.74348
34.41624
35.0273
34.67334
34.00555
33.35491
33.1315
33.89452
34.61891
35.11023
34.29667
33.55423
33.29204
34.1765
35.09857
34.60822
33.70151
33.63399
34.58313
35.07583
34.13471
32.96152
34.09177
35.00385
34.52767
33.47944
33.36865
34.40701
34.90677
34.05444
33.80202
34.69509
35.07762
34.30328
33.23966
32.95955
34.09458
34.79935
35.13645
34.41743
33.68275
33.15584
34.12739
34.81007
35.08526
34.4682
33.74575
33.28565
33.98523
34.58252
34.95144
35.20747
35.06498
34.83054
34.35348
33.7545
32.79697
33.09597
33.81388
34.3084
34.58821
34.66742
34.67121
34.67927
34.46069
33.99047
33.52069
32.84838
33.36485
33.6543
33.78133
33.84566
33.75752
33.54646
33.18909
32.83781
33.09338
33.01919
33.03065
33.76305
34.83704
36.10296
35.52247
34.18654
33.38476
33.74307
34.80535
35.98668
35.46294
34.16969
33.36318
33.70539
34.74365
35.82211
35.3582
34.12757
33.32669
33.6543
34.6704
35.64464
35.23876
34.07244
33.27803
33.59547
34.59989
35.52415
35.76671
35.15598
34.01257
33.22228
33.53182
34.52941
35.38436
35.63951
35.05668
33.95096
33.16675
33.45128
34.45798
35.28144
35.54448
34.96058
33.898
33.11965
33.39017
34.37741
35.18454
35.45417
34.85959
33.84195
33.30727
34.28461
35.09131
35.37105
34.75556
33.76502
33.21956
34.1559
34.96404
35.29377
34.59547
33.67639
33.13896
33.94798
34.87044
35.21567
34.43385
33.57646
33.05133
33.83955
34.80196
35.14964
34.33486
33.43019
32.96653
33.73248
34.71203
35.28732
35.03476
34.24525
33.32281
33.64756
34.61688
35.21755
34.94239
34.14538
33.21278
33.55606
34.45673
35.15436
34.83208
33.99973
33.10582
33.39632
34.26704
35.02311
35.28792
34.68716
33.81291
33.01787
33.14836
33.9344
34.75943
35.09275
34.45512
33.56743
32.81351
33.65466
34.55775
35.15501
34.8862
34.10504
33.22227
33.30795
34.18317
34.91133
35.1856
34.57048
33.76136
32.90562
32.95271
33.79117
34.58136
35.19573
34.92971
34.20008
33.35261
33.35041
34.1854
34.87911
35.16526
34.55711
33.78315
32.95202
32.91893
33.73756
34.48606
35.06871
34.76085
34.12774
33.31211
33.20434
33.92537
34.63888
35.19495
34.94934
34.3846
33.61759
32.82889
33.48714
34.18146
34.82666
35.10239
34.52081
33.81454
33.06385
32.89441
33.69501
34.3519
34.89692
35.18235
34.59635
33.98229
33.28012
33.03924
33.77652
34.46193
35.09852
34.75603
34.12245
33.39982
33.13193
33.84517
34.58308
35.07
34.28148
33.54908
33.18188
34.09174
34.97467
34.5184
33.58469
32.81097
33.36863
34.45145
34.97888
34.02367
33.94711
34.81826
34.34323
33.19276
33.0211
34.12406
35.03777
34.58832
33.67076
33.48856
34.37971
35.11598
34.78691
34.01801
32.81328
33.63449
34.43119
35.10897
34.82616
34.06587
33.0947
32.65638
33.70248
34.42059
34.93641
35.14415
34.67841
34.10014
33.17462
32.71994
33.56403
34.15297
34.60971
34.9082
34.96719
34.98092
34.96601
34.74225
34.42563
33.84785
33.21349
33.33937
33.74325
34.1143
34.24172
34.26765
34.21232
33.97734
33.57389
32.96925
32.89503
33.31587
33.59129
33.80787
33.84648
33.75331
33.48531
33.1318
32.88456
33.17295
33.35707
33.33256
33.2606
33.0517
32.73702
32.97911
32.90374
32.9036
34.14597
35.47
36.30429
35.91192
34.81195
33.64282
34.12625
35.41359
36.15998
35.81789
34.78081
33.6157
34.08038
35.30884
35.97629
35.68377
34.71965
33.56245
34.01691
35.1928
35.79886
35.52962
34.63834
33.49872
33.94265
35.08082
35.69737
35.42199
34.54515
33.43054
33.86289
34.96166
35.57618
35.25545
34.44781
33.36014
33.77347
34.73893
35.49302
35.14842
34.31889
33.28629
33.66957
34.59969
35.4037
35.05906
34.1763
33.20566
33.56083
34.4858
35.34146
34.97292
34.03154
33.1188
33.45762
34.38081
35.25676
34.88442
33.83758
33.04309
33.30982
34.30457
35.17549
34.81797
33.74872
32.96017
33.21432
34.22816
35.06812
35.31985
34.73072
33.67296
33.1238
34.13765
34.92668
35.23238
34.62748
33.59428
33.03184
33.98518
34.84796
35.18257
34.4204
33.49408
32.929
33.75
34.77288
35.11944
34.28587
33.36528
32.79495
33.64551
34.63446
35.28512
35.00504
34.1646
33.18626
33.42552
34.31136
35.08696
34.73284
33.81767
32.98372
33.09552
34.03128
34.80677
35.14559
34.49615
33.5507
32.73306
33.63658
34.5433
35.17323
34.90191
34.09406
33.15552
33.21396
34.15107
34.9263
35.19414
34.54605
33.69469
32.79679
32.80858
33.7031
34.55315
35.19029
34.90286
34.15231
33.22717
33.20476
34.12277
34.82723
35.16774
34.51798
33.67589
32.78626
32.73115
33.59898
34.44086
35.06212
34.69933