/*--------------------------------*- C++ -*----------------------------------*\
| =========                 |                                                 |
| \\      /  F ield         | OpenFOAM: The Open Source CFD Toolbox           |
|  \\    /   O peration     | Version:  5.x                                   |
|   \\  /    A nd           | Web:      www.OpenFOAM.org                      |
|    \\/     M anipulation  |                                                 |
\*---------------------------------------------------------------------------*/
FoamFile
{
    version     2.0;
    format      ascii;
    class       volScalarField;
    location    "10/tissue";
    object      T;
}
// * * * * * * * * * * * * * * * * * * * * * * * * * * * * * * * * * * * * * //

dimensions      [0 0 0 1 0 0 0];

internalField   nonuniform List<scalar> 
87936
(
32.73127
33.1368
33.15635
33.0372
32.73338
33.12028
33.14008
33.02333
32.76204
33.08841
33.10733
33.00374
32.81201
33.04667
33.06634
32.96586
32.97407
33.02867
32.73586
32.9312
33.00493
32.67429
32.89929
32.99388
32.69546
32.79299
32.98916
32.78626
33.21458
33.69116
34.09076
34.46539
34.53452
34.31612
33.94735
33.30979
32.89031
33.16147
33.65159
34.04912
34.42465
34.49698
34.27141
33.90865
33.29345
32.90111
33.00872
33.5503
33.95463
34.33741
34.41982
34.1694
33.82338
33.25272
32.84111
33.3188
33.85209
34.22996
34.32121
34.04366
33.67112
33.21584
32.77896
33.23894
33.79258
34.11767
34.20793
33.93857
33.59243
33.1681
32.71077
33.15205
33.69559
33.96846
34.07146
33.80169
33.49874
33.09781
32.64228
33.06138
33.55706
33.77769
33.91381
33.64021
33.37818
33.01838
32.57558
32.96857
33.41895
33.58595
33.72517
33.50689
33.23603
32.92779
32.50932
32.88007
33.26418
33.41586
33.51158
33.36107
33.0315
32.79548
32.85334
33.1347
33.33302
33.40275
33.26334
32.87151
32.59481
32.77515
33.00884
33.24381
33.29987
33.1622
32.79264
32.45542
32.66382
32.81734
33.14006
33.19629
33.02671
32.78389
32.38238
32.58629
32.70126
33.02405
33.08923
32.86177
32.70642
32.35469
32.36729
32.68858
32.89998
32.97307
32.68658
32.5944
32.32167
32.57329
32.66753
32.7581
32.58278
32.5181
32.60222
32.6723
32.71268
32.6434
32.41002
32.3518
32.48292
32.26578
33.55716
34.45061
35.18039
35.8921
36.10722
36.1516
36.02356
35.49326
34.85076
34.07078
33.12358
33.53854
34.40384
35.1178
35.79084
35.98184
36.0156
35.92155
35.42522
34.79638
34.04805
33.09924
33.49575
34.3294
35.00807
35.64323
35.8093
35.82375
35.75944
35.3089
34.70582
34.00207
33.05867
33.4355
34.2415
34.89746
35.45992
35.62486
35.62409
35.58003
35.17083
34.62165
33.92814
33.00445
33.36464
34.14082
34.77831
35.24607
35.47031
35.50059
35.44196
35.03277
34.52014
33.83883
32.94129
33.28685
34.03565
34.65729
35.08611
35.31706
35.34501
35.28609
34.89164
34.40775
33.736
32.87041
33.20425
33.91879
34.52623
34.93797
35.19448
35.19456
35.10089
34.7476
34.26956
33.60732
32.78761
33.11558
33.78971
34.38496
34.79448
35.0398
35.07095
34.93955
34.60009
34.11967
33.41892
32.67964
33.05185
33.66328
34.25375
34.65973
34.90042
34.93708
34.80723
34.46387
33.97019
33.27475
32.60837
32.93349
33.55047
34.12331
34.51912
34.77391
34.81582
34.67214
34.33456
33.83037
33.14071
32.54864
32.7287
33.42638
33.97036
34.35649
34.64803
34.69963
34.52604
34.1827
33.69266
33.0288
32.58105
33.25216
33.80471
34.2016
34.51098
34.57447
34.37099
34.03657
33.53615
32.93055
32.4479
33.04228
33.61084
34.05721
34.36516
34.43768
34.22073
33.86748
33.36172
32.85155
32.37638
32.87876
33.44726
33.90287
34.21743
34.29316
34.07394
33.69029
33.22346
32.72883
32.72898
33.28392
33.73782
34.06925
34.14226
33.92569
33.49779
33.03909
32.47483
32.75556
33.14543
33.55034
33.87409
33.93608
33.73829
33.34785
32.89303
32.41043
32.35946
32.83429
33.29419
33.53769
33.58032
33.42799
33.09722
32.73148
32.55112
32.8729
33.14946
33.20084
33.05222
32.71446
32.22507
32.13912
32.55946
32.69292
32.75009
32.70656
32.39476
32.29838
32.34176
32.2069
33.05706
34.04372
35.01891
35.97951
36.39795
35.65842
34.4695
33.53256
33.04259
33.98619
34.97414
35.87989
36.21283
35.58098
34.43278
33.51702
33.01996
33.88781
34.89223
35.71607
35.99525
35.46133
34.36341
33.48968
33.78527
34.79406
35.5552
35.83644
35.32497
34.27845
33.34131
33.68733
34.69236
35.44404
35.71507
35.21002
34.18751
33.21825
33.58518
34.58941
35.308
35.68309
35.52846
35.07095
34.09406
33.10514
33.48029
34.48132
35.20538
35.58747
35.39737
34.90099
33.9955
33.00241
33.37985
34.37131
35.10272
35.50509
35.28966
34.74699
33.89547
32.90632
33.28046
34.25759
35.0049
35.42228
35.20087
34.62182
33.79126
32.80845
33.18105
34.12526
34.90966
35.25918
35.43701
35.09357
34.50182
33.67281
32.70702
33.08311
33.97275
34.77839
35.15671
35.34424
34.99811
34.3736
33.52555
32.60798
32.997
33.8294
34.59073
35.0868
35.36853
35.22714
34.9147
34.24257
33.36438
32.53509
32.80275
33.69037
34.44449
34.9876
35.23466
35.35258
35.13615
34.8034
34.10983
33.21124
32.63773
33.54399
34.30231
34.90527
35.15196
35.33437
35.23126
35.05956
34.63665
33.96177
33.06998
32.48128
33.376
34.15305
34.79089
35.09345
35.20242
35.22883
35.16796
34.97605
34.46507
33.79547
32.93352
32.50225
33.20383
33.97371
34.5537
34.88105
35.02339
35.02624
35.00375
34.8031
34.26534
33.6087
32.89841
32.88419
33.60615
34.1752
34.65887
34.80571
34.81251
34.76859
34.42942
33.93282
33.22534
32.48
32.44833
33.16073
33.76983
34.20187
34.40024
34.42589
34.32399
34.02727
33.51957
32.84144
32.75026
33.31444
33.75522
33.96255
33.9927
33.88721
33.55546
33.04296
32.38875
32.24044
32.81647
33.26101
33.47799
33.52407
33.391
33.01476
32.61833
32.26128
32.71197
32.92594
33.04111
32.85766
32.57338
32.2165
32.47736
32.5895
32.33674
34.17289
35.54813
36.42929
35.95574
34.83706
33.50528
34.11572
35.46465
36.23988
35.85225
34.78462
33.4764
34.03529
35.32146
36.03143
35.68174
34.69308
33.42412
33.96118
35.16732
35.82947
35.50197
34.59129
33.34969
33.87193
35.02949
35.72862
35.38055
34.48179
33.25979
33.76883
34.86402
35.60105
35.24899
34.36314
33.16791
33.66133
34.71406
35.49739
35.1416
34.24333
33.07622
33.55051
34.59235
35.40618
35.04395
34.12175
32.98231
33.43213
34.48016
35.33929
34.9599
33.99395
32.88043
33.31772
34.37287
35.18546
35.42026
34.86551
33.87329
32.77849
33.2096
34.26097
35.06185
35.3348
34.75748
33.74992
32.68187
33.09202
34.13359
34.97083
35.29178
34.63672
33.59957
32.57627
32.90119
34.00213
34.87084
35.20696
34.4625
33.44753
32.75639
33.86437
34.78065
35.30839
35.08239
34.32435
33.30842
32.60084
33.7059
34.65803
35.26423
34.9714
34.18637
33.15572
32.55307
33.47758
34.42584
35.06636
35.29436
34.79795
33.99525
33.04898
33.1894
34.0808
34.807
35.24255
35.03251
34.5194
33.64827
32.69064
32.84288
33.69339
34.48842
34.89826
35.24394
35.10615
34.72397
34.08755
33.22984
32.35044
32.34929
33.2268
34.00332
34.57772
34.86452
35.01748
34.95438
34.98457
34.77431
34.30011
33.65151
32.79844
32.74776
33.50666
34.07731
34.45909
34.70408
34.71227
34.64352
34.28377
33.83171
33.14147
32.30606
32.27177
32.97816
33.5944
33.96375
34.16931
34.20705
34.09779
33.78106
33.33433
32.7109
32.38701
32.99998
33.39221
33.60369
33.66856
33.53691
33.2359
32.76454
32.40427
32.77162
32.9598
33.0773
32.92369
32.66368
32.19793
32.21163
32.3758
32.44305
32.33955
34.07821
35.48943
36.24114
34.73752
33.39065
34.05623
35.41568
36.07286
34.70947
33.36119
34.00432
35.30349
35.88382
34.65398
33.30755
33.93046
35.19706
35.73061
34.5784
33.23763
33.842
35.08604
35.59932
34.48879
33.15712
33.74369
34.97263
35.46482
34.38993
33.0714
33.63224
34.85999
35.32241
34.28096
32.9784
33.50637
34.74359
35.46984
35.13429
34.15296
32.86091
33.37674
34.55616
35.3811
35.01045
34.00308
32.75219
33.2406
34.41508
35.28863
34.90324
33.85897
32.66908
33.07449
34.28481
35.22342
34.80404
33.69979
32.94384
34.15944
35.171
34.7103
33.55533
32.82547
34.05129
35.0745
34.61164
33.44414
32.70294
33.93907
34.91073
35.24981
34.50725
33.32259
32.56811
33.78185
34.80714
35.18615
34.32939
33.17669
32.52135
33.54568
34.6274
35.047
34.13622
33.04775
33.27436
34.36559
35.128
34.71791
33.84089
32.72341
32.78018
33.94266
34.77138
35.14235
34.41969
33.39736
32.41032
33.46487
34.43594
35.04163
35.23835
34.76824
33.96421
32.98367
33.04237
33.93227
34.66281
35.15438
34.90644
34.38104
33.531
32.52368
32.47679
33.36993
34.16121
34.70185
34.99261
35.09005
35.08297
35.09373
34.85046
34.50782
33.83197
33.00448
32.84544
33.60393
34.18962
34.58082
34.70725
34.71992
34.68764
34.37165
33.93001
33.25152
32.37294
32.25814
32.98337
33.5789
33.96544
34.13748
34.16682
34.09139
33.77995
33.25678
32.67249
32.30333
32.94144
33.32524
33.52919
33.5629
33.4528
33.11639
32.68713
32.26049
32.67153
32.8662
32.91204
32.7535
32.44474
32.27012
32.35324
33.66611
35.35286
36.09925
34.50148
33.64425
35.29288
35.97258
34.4732
33.59961
35.18412
35.79742
34.41371
33.53785
35.06153
35.62212
34.33145
33.46535
34.94402
35.5061
34.23124
33.38511
34.82221
35.36034
34.10787
33.28084
34.62694
35.20081
33.92972
33.19521
34.48357
35.44381
35.03452
33.81882
33.08705
34.36038
35.36349
34.93064
33.70931
32.97175
34.245
35.27798
34.82578
33.61585
32.8608
34.14952
35.19005
34.71979
33.52843
32.74134
34.05305
35.13643
34.63362
33.42081
32.63123
33.94239
35.04643
34.54477
33.29129
33.78244
34.88018
35.25354
34.42759
33.0895
33.56089
34.763
35.18341
34.24168
32.912
33.46326
34.58469
35.05689
34.0611
32.84332
33.17743
34.30836
35.17661
34.74569
33.78171
32.51579
32.74167
33.9404
34.97255
34.47961
33.39797
32.33868
33.50461
34.55013
34.992
34.0586
32.95729
33.06982
34.11881
34.89418
35.21411
34.5629
33.62797
32.4821
32.51937
33.63821
34.50888
35.16407
34.838
34.10694
33.13919
33.09945
33.99186
34.6805
35.18155
34.95317
34.40492
33.5896
32.53621
32.41423
33.37355
34.13583
34.68304
34.95787
35.05413
35.06051
35.07888
34.80933
34.45552
33.81477
32.97069
32.74264
33.54084
34.09103
34.47726
34.62678
34.62855
34.60628
34.25933
33.84567
33.16174
32.28685
32.81047
33.40752
33.76429
33.9872
34.02847
33.89804
33.60511
33.11872
32.37655
32.68581
33.0382
33.27771
33.33815
33.1354
32.86196
32.30822
32.29623
32.50001
32.60223
32.42036
33.3688
34.78109
36.3759
35.57705
34.09827
33.34095
34.74623
36.19884
35.50528
34.0766
33.29228
34.67944
35.98625
35.38187
34.02665
33.23278
34.59724
35.78263
35.24281
33.9582
33.16246
34.51199
35.67001
35.13942
33.87501
33.06875
34.4249
35.53588
35.02386
33.7727
32.98814
34.33602
35.42904
34.92802
33.6529
34.23957
35.3299
34.82781
33.50332
34.13256
35.25927
34.73878
33.38808
33.99839
35.17258
34.62948
33.27208
33.81432
35.07006
34.5187
33.13886
33.69536
34.9399
34.37718
33.02658
33.5704
34.7831
35.23452
34.22167
32.89419
33.45099
34.68221
35.16041
34.10206
32.74265
33.32625
34.60085
35.11137
33.99838
32.6081
33.15367
34.41776
34.95954
33.84702
32.83021
34.10443
35.07821
34.62624
33.5155
32.44049
33.79245
34.91543
34.38674
33.15675
33.3834
34.4843
34.96875
33.97368
32.69651
32.84795
34.0384
35.04079
34.54463
33.50433
32.37053
33.54192
34.5925
35.05668
34.19171
33.03152
33.04581
34.08844
34.98113
34.5352
33.62016
32.44978
32.37794
33.49261
34.41232
35.10795
34.74268
33.98722
33.02041
32.91568
33.82581
34.52031
35.03827
35.13682
34.7804
34.1742
33.37809
32.3589
32.23041
33.16127
33.88223
34.47836
34.7439
34.8659
34.92551
34.82396
34.59032
34.1721
33.56153
32.71654
32.3566
33.16862
33.75575
34.11093
34.28196
34.30729
34.22651
33.96064
33.50672
32.82037
32.32939
33.00624
33.36951
33.55618
33.59912
33.48902
33.172
32.69926
32.23711
32.5619
32.78402
32.85184
32.70353
32.42237
33.35176
34.45037
36.10301
35.32549
33.75526
33.32862
34.41924
35.97013
35.26266
33.73509
33.28136
34.34969
35.78389
35.14353
33.68622
33.20804
34.23759
35.60757
35.01521
33.60891
33.10711
34.12121
35.46247
34.88376
33.4777
33.01775
34.00871
35.30428
34.69471
33.36863
32.93684
33.90548
35.18624
34.54838
33.23282
33.80856
35.06909
34.43789
33.08612
33.70066
34.96291
34.3344
32.96869
33.58142
34.81289
35.30292
34.23133
32.86083
33.46448
34.71313
35.21617
34.12832
32.76434
33.34092
34.61781
35.13871
34.00829
32.67771
33.15149
34.5157
35.05925
33.82734
32.99609
34.408
34.97409
33.69579
32.82715
34.25834
34.86179
33.55433
32.75771
34.07089
35.14646
34.64121
33.45144
33.74108
34.93712
34.3694
33.07123
33.42659
34.59278
35.09448
34.04027
32.69491
32.97008
34.28007
34.82238
33.65854
32.52408
33.88402
34.92525
34.40309
33.2776
33.42659
34.47409
35.00625
33.98415
32.72544
32.81565
34.00009
34.98391
34.49047
33.47267
32.2772
33.46832
34.46012
34.93651
33.99029
32.92517
32.89231
33.92191
34.7098
35.10618
34.35919
33.41889
32.26999
33.268
34.11181
34.77374
35.11634
34.49243
33.7379
32.66945
32.46806
33.41509
34.15126
34.696
34.9952
35.08441
35.07065
35.06175
34.85936
34.4735
33.83907
33.0234
32.70174
33.48771
34.01223
34.32567
34.54721
34.55459
34.49862
34.18872
33.73958
33.11998
32.2433
32.68114
33.17353
33.59897
33.80201
33.82532
33.7278
33.4441
32.96095
32.26655
32.31002
32.71704
32.94288
32.95782
32.88873
32.58082
33.4148
34.2941
35.4386
36.30089
34.74301
33.82715
33.39486
34.27116
35.37811
36.13677
34.71132
33.81054
33.35472
34.2226
35.27103
35.93325
34.6478
33.76982
33.29827
34.15709
35.15216
35.74226
34.56804
33.71134
33.22884
34.08076
35.03711
35.60121
34.48241
33.64014
33.1491
33.99208
34.94246
35.49145
34.38514
33.55856
33.06192
33.88941
34.83545
35.39813
34.27288
33.46989
32.9695
33.75696
34.72122
35.27345
34.15895
33.36856
32.87625
33.61123
34.5839
35.14637
34.03573
33.23953
33.48398
34.44649
35.03741
33.9106
33.09053
33.36615
34.3269
34.9436
33.78486
32.96681
33.25013
34.20753
34.83602
33.65186
32.84667
33.1144
34.09575
35.20132
34.70029
33.47361
32.72814
32.95527
33.98411
35.10784
34.59767
33.34152
32.62052
32.77317
33.84635
35.0483
34.50206
33.18659
32.71409
33.65725
34.84871
34.30121
33.05865
33.37799
34.54489
35.08056
33.97301
32.68584
32.92828
34.28988
34.86395
33.62974
32.49833
33.92134
35.00145
34.46556
33.28034
33.5247
34.70482
34.14028
32.78082
32.98846
34.26625
34.83105
33.6665
32.46825
33.83347
34.88664
34.35966
33.22477
33.29653
34.37362
34.87867
33.86013
32.59238
32.61764
33.83716
34.71934
35.11522
34.2993
33.28834
33.23753
34.21533
35.04487
34.60443
33.73644
32.576
32.41999
33.50098
34.36328
35.06733
34.70557
33.95468
33.04433
32.81042
33.68068
34.39764
34.8697
35.11022
35.03666
34.66384
34.04588
33.27491
32.24314
32.91759
33.64559
34.14574
34.52202
34.64261
34.6379
34.64809
34.40598
33.95685
33.28386
32.41294
32.77001
33.2946
33.71528
33.86841
33.87453
33.82848
33.56764
33.11153
32.36608
32.47864
32.86773
33.00171
33.02205
32.95812
32.65511
32.25725
33.50485
34.3482
35.26684
36.31655
35.81685
34.80164
33.86598
33.14727
33.47303
34.32753
35.2176
36.15714
35.72736
34.77134
33.85405
33.14645
33.41676
34.28192
35.13072
35.96084
35.58896
34.71151
33.8196
33.34881
34.21855
35.03289
35.77679
35.44583
34.63604
33.76471
33.27234
34.1434
34.93932
35.68191
35.35346
34.5538
33.69276
33.189
34.05935
34.84365
35.57281
35.24699
34.46578
33.61064
33.10081
33.96701
34.74279
35.48312
35.15334
34.37093
33.52117
33.00875
33.86377
34.63028
35.36671
35.05058
34.26408
33.42567
32.91403
33.74007
34.50939
35.279
34.9571
34.13771
33.3246
32.81664
33.56165
34.39269
35.16836
34.83265
34.00306
33.20202
33.44554
34.2684
35.05162
34.6306
33.88236
33.03791
33.32839
34.15393
34.98021
34.50602
33.76525
32.91568
33.2121
34.03903
34.8907
34.39254
33.64411
32.79547
33.08608
33.90497
34.75998
35.25103
34.27534
33.4881
32.676
32.89875
33.77547
34.6606
35.17175
34.15814
33.31095
32.56836
32.82749
33.61381
34.47146
35.00524
33.97559
33.22496
33.27072
34.17851
34.73621
33.657
32.8448
32.8093
33.8521
34.98212
34.42067
33.24794
33.48501
34.70535
34.13904
32.71213
32.97284
34.26413
34.8788
33.69152
32.47603
33.89395
34.99138
34.43513
33.2816
33.44834
34.57455
35.05661
34.07067
32.67944
32.80714
34.13041
35.07606
34.60287
33.51395
33.53261
34.59796
35.03676
34.14002
32.8718
32.86714
34.11454
35.02417
34.53496
33.51443
33.43092
34.37013
35.11425
34.76373
33.9047
32.78955
32.64734
33.77619
34.51868
35.1111
34.85372
34.19907
33.26113
33.0028
33.8454
34.49023
34.96303
35.09489
34.73362
34.22629
33.44092
32.38733
33.02907
33.7145
34.22672
34.5761
34.69724
34.68394
34.6435
34.4557
34.00936
33.39469
32.50273
32.84724
33.47876
33.78799
33.94324
33.98021
33.87377
33.62917
33.16397
32.42612
32.5383
32.89885
33.04283
33.0701
32.98693
32.68069
32.25274
33.57834
34.45758
35.33982
36.35466
35.85112
34.88189
34.02574
33.16935
33.56308
34.41718
35.28509
36.19237
35.76233
34.84189
33.98994
33.15756
33.48595
34.35048
35.19077
35.99652
35.62255
34.77113
33.88785
33.14812
33.40367
34.27305
35.08648
35.81085
35.47744
34.68688
33.82024
33.30492
34.18662
34.98818
35.71946
35.38402
34.59768
33.73262
33.20967
34.09696
34.89214
35.61099
35.2792
34.50691
33.64149
33.11768
34.00472
34.79505
35.50711
35.18311
34.41436
33.54904
33.02534
33.90775
34.69178
35.35862
35.58959
35.06523
34.31707
33.454
32.93186
33.80223
34.57724
35.22827
35.52659
34.92745
34.20936
33.35577
32.83778
33.67594
34.44393
35.13334
35.43587
34.79653
34.07809
33.25267
32.73059
33.49811
34.32762
35.05157
35.34302
34.69183
33.94413
33.10914
33.38189
34.22094
34.96439
35.28266
34.59073
33.82668
32.96334
33.25548
34.1087
34.86573
35.19015
34.48182
33.7033
32.82877
33.12382
33.97768
34.70863
35.09434
34.34986
33.56098
32.69841
32.94733
33.8252
34.58209
35.27397
34.99813
34.21611
33.34849
32.56776
32.86223
33.67177
34.41696
35.11072
34.80855
34.05901
33.26859
32.53861
33.32291
34.11284
34.88266
34.52639
33.74183
32.90726
32.91174
33.73599
34.56886
35.09646
34.08946
33.3108
32.49028
32.47096
33.28603
34.24979
34.79613
33.69107
32.89188
32.81711
33.83612
34.98867
34.43084
33.23482
32.43367
33.42838
34.6022
34.06807
32.65989
32.83726
34.17666
34.74937
33.5662
33.65071
34.85765
34.24116
32.96174
33.15704
34.28198
34.84725
33.78741
32.36714
32.42838
33.79348
34.81306
34.28256
33.22907
33.18105
34.2096
35.08227
34.64854
33.75329
32.42529
32.33123
33.54895
34.50316
34.9729
34.10936
33.05801
32.74448
33.83643
34.5779
34.98488
34.22932
33.38655
33.05593
33.8735
34.50582
35.05313
34.75567
34.23951
33.48169
32.46325
33.04939
33.73077
34.34702
34.60101
34.73491
34.81102
34.64858
34.48588
34.0359
33.4144
32.52143
32.84543
33.46099
33.77654
33.92605
33.94861
33.86183
33.61947
33.15728
32.42599
32.36651
32.81944
32.99648
33.01057
32.94724
32.62256
33.50498
34.45772
35.39011
36.38378
35.89366
34.91815
33.96837
33.47321
34.41735
35.33172
36.2214
35.79966
34.87449
33.90156
33.41713
34.35069
35.23146
36.03517
35.66922
34.79511
33.85834
33.34941
34.27361
35.1209
35.85634
35.525
34.70579
33.79179
33.27306
34.18771
35.01647
35.74685
35.41769
34.61206
33.71568
33.1898
34.09803
34.91767
35.6386
35.30899
34.5193
33.63057
33.10151
34.00557
34.82318
35.54092
35.21468
34.42759
33.54018
33.00953
33.90864
34.7266
35.44478
35.11551
34.33313
33.44496
32.91475
33.80336
34.6229
35.33625
35.55948
35.0139
34.23086
33.34552
32.81728
33.677
34.49844
35.1898
35.48371
34.87328
34.1065
33.23838
33.49899
34.36463
35.09657
35.41094
34.74419
33.96344
33.07852
33.38266
34.25404
35.02267
35.35005
34.64095
33.84518
32.94368
33.25597
34.14054
34.92865
35.26877
34.53243
33.71932
32.81594
33.12416
34.01151
34.81936
35.40061
35.12456
34.41227
33.57567
32.69037
32.94746
33.85625
34.64709
35.32304
35.01686
34.26541
33.36092
32.56601
32.8625
33.71226
34.46784
35.17137
34.83323
34.10685
33.28276
32.53907
33.33716
34.15037
34.8319
35.19202
34.50346
33.7727
32.93664
32.93552
33.76679
34.48299
35.18273
34.85573
34.1374
33.33552
32.49841
32.48226
33.32342
34.11494
34.89058
34.52445
33.74855
32.92628
32.88566
33.68346
34.5075
35.07686
34.03833
33.2811
32.45224
32.40989
33.22077
34.16654
34.72716
33.62025
32.79813
32.65168
33.68261
34.82641
34.26026
33.09252
33.17676
34.33193
34.92835
33.76892
32.4437
32.50177
33.88391
34.9656
34.42444
33.28902
33.38235
34.42344
34.9801
33.98186
32.55259
32.59205
33.88868
34.93636
34.4052
33.37006
33.29822
34.27513
34.81702
33.8255
32.54564
32.40268
33.64547
34.51502
34.97392
34.14185
33.15278
32.89715
33.85332
34.57009
34.97301
34.23686
33.42798
32.26755
33.06296
33.8716
34.48454
35.04328
34.74986
34.24052
33.48133
32.48353
33.03465
33.70301
34.18383
34.55587
34.63961
34.63324
34.60537
34.43137
33.99208
33.3923
32.51526
32.77955
33.27813
33.67793
33.85224
33.86008
33.79338
33.55322
33.11122
32.38572
32.3209
32.69788
32.95135
32.97381
32.84482
32.57339
33.41482
34.34825
35.33992
36.38384
35.87555
34.83732
33.84695
33.39488
34.32758
35.28515
36.22153
35.78109
34.80391
33.83269
33.35474
34.28195
35.19074
36.0355
35.64285
34.7411
33.7949
33.29829
34.21854
35.08636
35.85685
35.50336
34.66258
33.73857
33.22887
34.14334
34.98814
35.74745
35.40455
34.57765
33.66856
33.14911
34.05925
34.89245
35.63925
35.29791
34.48838
33.58847
33.06199
33.96699
34.79561
35.54158
35.20309
34.39432
33.50014
32.96956
33.86386
34.69224
35.44535
35.09788
34.29167
33.40481
32.87631
33.7402
34.57746
35.33674
34.99761
34.17351
33.29911
33.56184
34.44398
35.19035
35.48821
34.83629
34.03514
33.14586
33.44573
34.32774
35.09715
35.41825
34.72145
33.91458
33.01046
33.32858
34.22114
35.02321
35.35288
34.61918
33.79904
32.88625
33.21231
34.10907
34.92932
35.27214
34.51136
33.67881
32.77147
33.08633
33.97815
34.82072
35.42902
35.14555
34.3885
33.53815
32.65421
32.89907
33.82581
34.65029
35.35772
35.03954
34.2445
33.32946
32.82782
33.67222
34.47257
35.19856
34.85413
34.0851
33.25135
33.3233
34.15031
34.88183
35.24302
34.52283
33.76072
32.87747
32.91199
33.76658
34.52265
35.1955
34.87515
34.1525
33.32579
32.48846
32.4712
33.32416
34.16302
34.84123
35.19931
34.55819
33.76724
32.91458
32.88611
33.71957
34.42098
35.12874
34.792
34.08294
33.29596
32.44378
32.41011
33.23942
34.01193
34.7768
34.4142
33.644
32.82802
32.72212
33.56039
34.35356
34.96969
33.91392
33.16155
32.96707
33.8887
34.95626
34.4214
33.34178
32.50219
33.4147
34.55702
34.01717
32.61443
32.66229
34.02954
34.57434
33.46434
33.47643
34.57691
34.03107
32.70997
32.71821
33.99376
34.96406
34.42958
33.44954
33.3417
34.3412
34.84815
33.85419
32.64425
32.4282
33.72422
34.51743
34.95644
34.15381
33.17869
32.80613
33.83731
34.56858
34.96874
34.21826
33.40796
33.02546
33.84213
34.45225
34.89515
35.05048
34.68986
34.20237
33.4531
32.42236
32.96595
33.64086
34.10227
34.47015
34.62129
34.59165
34.56226
34.35861
33.90579
33.30923
32.46134
32.65983
33.18087
33.58257
33.78831
33.81198
33.68472
33.42902
32.94402
32.3347
32.55118
32.81312
32.84162
32.70647
32.39123
33.35175
34.2941
35.26685
36.3547
35.82631
34.76779
33.80364
33.32861
34.27116
35.21761
36.1924
35.73799
34.73695
33.78519
33.28135
34.22259
35.13071
35.99657
35.6011
34.67644
33.74057
33.20803
34.15703
35.03288
35.81093
35.45882
34.60085
33.67664
33.10712
34.08067
34.93936
35.71959
35.36606
34.51907
33.59848
33.01772
33.99195
34.84367
35.61118
35.25695
34.4303
33.50538
32.9368
33.88932
34.74267
35.50733
35.14273
34.33317
33.39556
33.75691
34.63016
35.35879
35.0168
34.2211
33.28696
33.61122
34.50933
35.22839
35.5343
34.87665
34.09583
33.13713
33.484
34.3927
35.13345
35.46669
34.76068
33.97236
33.01517
33.36619
34.26847
35.05171
35.38778
34.65876
33.8453
32.89546
33.2502
34.15405
34.9646
35.31388
34.55741
33.72397
32.76515
33.11449
34.03919
34.86604
35.19863
34.45094
33.59348
32.65105
32.95537
33.90514
34.70906
35.4014
35.07226
34.32716
33.40599
32.77326
33.77562
34.58254
35.32503
34.98431
34.20697
33.26107
32.71417
33.61391
34.41696
35.17579
34.80476
34.03236
33.16533
33.27073
34.11259
34.83177
35.21062
34.47276
33.70354
32.78694
32.80936
33.7359
34.48281
35.19563
34.83467
34.12978
33.29024
33.28602
34.1148
34.84156
35.23202
34.47055
33.72823
32.82924
32.81713
33.68328
34.42144
35.13809
34.77082
34.07142
33.26291
33.2208
34.01186
34.68772
35.0462
34.34806
33.63751
32.75584
32.65186
33.56104
34.23847
34.99441
34.60655
33.92421
33.15337
32.96693
33.72824
34.47567
35.03337
34.05857
33.35337
32.4794
33.19123
34.07744
34.61855
33.5742
32.71029
32.46195
33.55916
34.64348
34.08603
32.92161
32.83363
34.13287
34.6647
33.56011
33.55202
34.61799
34.11196
32.8108
32.77212
34.00595
34.93981
34.44692
33.50721
33.30749
34.29767
34.84633
33.83701
32.5995
32.34879
33.62932
34.48667
34.9207
34.11256
33.1518
32.69198
33.77877
34.50482
35.03194
34.85129
34.17717
33.30968
32.86176
33.76295
34.34852
34.77642
35.04335
34.95487
34.56022
34.04895
33.35243
32.26261
32.73271
33.44721
33.98069
34.26485
34.50751
34.51221
34.45235
34.13948
33.75031
33.16622
32.26742
32.36975
32.99693
33.32759
33.59102
33.60107
33.5268
33.20729
32.71427
32.34783
32.51973
32.5691
32.45912
33.36879
34.45036
35.4386
36.31655
35.89815
34.92299
33.92837
33.34094
34.41922
35.3781
36.15713
35.79871
34.88239
33.90445
33.29226
34.34966
35.27103
35.96084
35.65103
34.80236
33.85117
33.23276
34.23753
35.15216
35.77679
35.50258
34.6976
33.77513
33.16244
34.12118
35.03709
35.68193
35.40645
34.59152
33.64522
33.06873
34.00868
34.94244
35.57282
35.29457
34.48751
33.53429
32.98813
33.90546
34.83543
35.48314
35.19268
34.37934
33.40175
33.80855
34.7212
35.36674
35.07143
34.27616
33.29009
33.70066
34.58391
35.27903
34.93635
34.16361
33.17202
33.58143
34.44651
35.16841
35.40256
34.82992
34.04106
33.05239
33.4645
34.32694
35.05169
35.30534
34.73239
33.91433
32.93344
33.34095
34.20758
34.9803
35.25722
34.63
33.75973
32.83197
33.15154
34.09581
34.8908
35.18617
34.53215
33.6508
32.73104
32.99614
33.98418
34.76009
35.09063
34.43083
33.51734
32.82721
33.84643
34.6607
35.27416
35.00792
34.26368
33.3691
32.75779
33.65734
34.47154
35.11082
34.83148
34.0795
33.23438
33.37811
34.17859
34.88262
35.18907
34.53961
33.79418
32.86192
32.92852
33.85225
34.56887
35.18267
34.90502
34.2565
33.45347
32.49873
33.48528
34.2498
34.8905
35.18002
34.56414
33.86151
32.96958
32.97312
33.83596
34.50729
35.1287
34.83887
34.21694
33.47209
32.50663
32.47583
33.42807
34.16629
34.77673
35.06953
34.4507
33.79097
32.93089
32.83706
33.68245
34.35344
34.99434
34.68621
34.09084
33.3475
33.17672
33.88866
34.4756
34.81443
34.20456
33.5617
32.66033
32.50179
33.41468
34.07741
34.72191
34.33451
33.69738
32.94562
32.66221
33.55917
34.25236
34.81333
33.93945
33.16492
32.83671
33.83216
34.82079
34.26361
33.32913
33.26022
34.25584
34.804
33.81026
32.47212
33.77363
34.73283
34.19575
33.12671
33.00661
34.07402
34.61543
33.72359
33.4741
34.36311
34.78823
33.97368
32.81195
32.51372
33.77324
34.50686
34.86926
34.10105
33.342
32.76418
33.81724
34.50556
34.81341
34.14189
33.43778
32.89274
33.68994
34.27377
34.69321
34.96725
34.82712
34.54003
34.03128
33.42781
32.34135
32.63202
33.5141
33.99929
34.29592
34.39212
34.40177
34.39754
34.15426
33.70691
33.14248
32.39673
32.95889
33.36572
33.49512
33.56115
33.48059
33.21757
32.73375
32.39963
32.64018
32.61475
32.56416
33.66611
34.78109
36.10303
35.42978
34.16639
33.19166
33.64425
34.74623
35.97014
35.36334
34.14763
33.167
33.59961
34.67944
35.7839
35.24799
34.10033
33.12198
33.53785
34.59724
35.60757
35.12963
34.03513
33.06228
33.46535
34.51199
35.46246
35.73385
35.03079
33.96099
32.99418
33.38511
34.42489
35.30427
35.60918
34.91851
33.88284
32.92717
33.28084
34.33602
35.18623
35.50647
34.81065
33.80594
32.87331
33.19521
34.23958
35.0691
35.39233
34.69831
33.72357
33.08706
34.13257
34.96292
35.29772
34.58735
33.6256
32.97176
33.9984
34.81291
35.19024
34.44117
33.5148
32.86082
33.81434
34.71315
35.12623
34.28849
33.3814
32.74136
33.69539
34.61785
35.02848
34.17514
33.21478
32.63126
33.57043
34.51574
35.20137
34.89227
34.06753
33.07694
33.45103
34.40805
35.1079
34.78078
33.95044
32.92326
33.3263
34.25841
35.04837
34.64922
33.79872
32.77425
33.15374
34.07099
34.84882
35.17034
34.46835
33.63758
32.70678
32.83033
33.74124
34.54509
34.94631
34.21602
33.34262
32.44068
33.42687
34.29034
34.98259
34.66353
33.86606
32.90446
32.97049
33.9224
34.70783
35.02459
34.29622
33.5122
32.4943
32.52438
33.52539
34.28677
34.98475
34.66969
33.9217
33.002
32.98768
33.89282
34.59957
34.94564
34.24234
33.50487
32.51116
32.46791
33.44785
34.17608
34.82603
34.4695
33.82728
32.93568
32.80705
33.65067
34.33203
34.95631
34.69228
34.06801
33.31051
32.36459
33.15721
33.88441
34.55731
34.8627
34.20488
33.53144
32.64899
32.42839
33.38222
34.02899
34.64298
34.93721
34.29044
33.69268
32.88763
32.5917
33.4759
34.13241
34.8206
34.44711
33.80927
33.03311
32.71794
33.5518
34.25568
34.81311
33.93864
33.21631
32.772
33.77355
34.75113
34.20122
33.24885
32.35198
33.00657
34.13628
34.69295
33.72123
33.64931
34.53576
34.03626
32.83395
32.61628
33.82618
34.79223
34.3002
33.37536
33.14554
34.06678
34.85849
34.50887
33.71339
32.38256
33.32333
34.11896
34.85088
34.54228
33.76849
32.68516
32.20031
33.39277
34.08858
34.66864
34.8947
34.36561
33.79452
32.79056
32.27687
33.19055
33.83216
34.2839
34.66326
34.73905
34.7571
34.72816
34.45967
34.09178
33.52637
32.78424
32.90134
33.43786
33.83222
33.97492
34.00245
33.9391
33.68054
33.22218
32.46141
32.32001
32.90896
33.28273
33.50318
33.55206
33.44965
33.14002
32.64257
32.35411
32.77819
32.99782
33.0314
32.89592
32.58092
32.25747
32.50335
32.50038
32.42105
34.07821
35.35286
36.3759
35.89183
34.71448
33.50452
34.05623
35.29288
36.19885
35.78849
34.6816
33.46631
34.00432
35.18412
35.98625
35.63864
34.61639
33.39931
33.93046
35.06153
35.78264
35.46746
34.52912
33.32278
33.842
34.94403
35.67001
35.34631
34.42789
33.23808
33.74369
34.82222
35.53588
35.16957
34.31765
33.15006
33.63224
34.62695
35.42904
35.03621
34.18102
33.05801
33.50637
34.48358
35.32991
34.92763
34.03299
32.95803
33.37675
34.36039
35.25928
34.83228
33.88155
32.85125
33.24061
34.24501
35.17259
34.73342
33.70506
32.75012
33.0745
34.14953
35.07007
34.64843
33.60135
32.63813
32.94385
34.05307
34.93992
35.22991
34.54374
33.50193
32.82549
33.94241
34.78313
35.13834
34.43368
33.39663
32.70296
33.78246
34.68225
35.06713
34.25138
33.2637
32.56814
33.56092
34.60089
35.02558
34.11153
33.09729
32.52137
33.4633
34.41781
35.14652
34.83535
33.97017
32.91352
33.17748
34.1045
34.9372
34.51909
33.62125
32.65508
32.74174
33.79253
34.5929
34.97963
34.2457
33.30514
32.33875
33.38348
34.28018
35.00164
34.68929
33.84416
32.80165
32.84799
33.88403
34.7048
35.01765
34.2744
33.42888
32.37245
32.37055
33.42654
34.26609
34.99123
34.67135
33.87465
32.85015
32.81564
33.83338
34.57444
34.98009
34.22476
33.38937
32.3379
32.27721
33.29651
34.13037
34.85762
34.42262
33.73073
32.73772
32.61766
33.53263
34.28203