/*--------------------------------*- C++ -*----------------------------------*\
| =========                 |                                                 |
| \\      /  F ield         | OpenFOAM: The Open Source CFD Toolbox           |
|  \\    /   O peration     | Version:  5.x                                   |
|   \\  /    A nd           | Web:      www.OpenFOAM.org                      |
|    \\/     M anipulation  |                                                 |
\*---------------------------------------------------------------------------*/
FoamFile
{
    version     2.0;
    format      ascii;
    class       volScalarField;
    location    "10/tissue";
    object      T;
}
// * * * * * * * * * * * * * * * * * * * * * * * * * * * * * * * * * * * * * //

dimensions      [0 0 0 1 0 0 0];

internalField   nonuniform List<scalar> 
87936
(
32.84
33.24484
33.26332
33.14616
32.84568
33.23191
33.2506
33.1359
32.88249
33.20802
33.22568
33.12445
32.94309
33.17812
33.19636
33.09853
33.12026
33.17305
32.88421
33.09363
33.1657
32.83813
33.07997
33.17345
32.87466
32.99659
33.19113
33.01069
33.32274
33.79432
34.18499
34.55318
34.62057
34.4068
34.04661
33.41524
32.99892
33.27349
33.75844
34.14731
34.51633
34.58682
34.36609
34.01171
33.40231
33.01349
33.12996
33.66549
34.06176
34.43748
34.51775
34.27291
33.93498
33.3694
32.98056
33.45165
33.97158
34.34099
34.43007
34.15861
33.79755
33.35456
32.93106
33.38383
33.92622
34.24186
34.33007
34.06653
33.73184
33.31849
32.8794
33.31177
33.84568
34.10896
34.20946
33.94613
33.65341
33.26371
32.82908
33.23825
33.7262
33.93745
34.06985
33.80454
33.55056
33.20198
32.78154
33.16479
33.6078
33.76648
33.90181
33.69321
33.42817
33.13091
32.73593
33.09942
33.47454
33.61995
33.71117
33.56842
33.24801
33.02188
33.09843
33.36473
33.5532
33.61882
33.48762
33.10871
32.84317
33.04026
33.25725
33.48031
33.5321
33.404
33.04695
32.72362
32.95257
33.09183
33.3948
33.44565
33.29086
33.07108
32.671
32.8925
32.99613
33.29885
33.35687
33.14861
33.01579
32.65927
32.69712
33.0158
33.1937
33.25928
32.9933
32.92302
32.66684
32.91504
32.98519
33.06846
32.9166
32.86044
32.95743
33.00922
33.04341
32.98972
32.77336
32.71996
32.84926
32.64031
33.65872
34.53945
35.25253
35.94292
36.14883
36.19132
36.06882
35.55654
34.93044
34.16578
33.22886
33.64362
34.4969
35.19544
35.85031
36.03372
36.06608
35.97607
35.4947
34.88095
34.14698
33.20832
33.6088
34.4307
35.09605
35.71621
35.8766
35.89017
35.82888
35.38956
34.79978
34.1092
33.17621
33.56019
34.35365
34.99724
35.54792
35.70973
35.70811
35.66788
35.26507
34.72657
34.04664
33.13471
33.5035
34.26613
34.89177
35.35115
35.5712
35.59953
35.54585
35.14166
34.63834
33.97099
33.08722
33.44163
34.17579
34.78585
35.20675
35.43428
35.46021
35.40476
35.01597
34.5408
33.88362
33.03374
33.37637
34.07561
34.67131
35.07453
35.32729
35.3249
35.23491
34.88826
34.41969
33.77259
32.96929
33.30744
33.96472
34.54738
34.94717
35.18704
35.21675
35.08863
34.7577
34.28799
33.60551
32.88056
33.2661
33.85717
34.43324
34.82844
35.06125
35.09607
34.97095
34.63809
34.15692
33.48005
32.82842
33.1688
33.76421
34.32052
34.70457
34.94911
34.98863
34.85158
34.52567
34.0355
33.36565
32.78761
32.98905
33.66035
34.18715
34.56036
34.83877
34.88718
34.72264
34.39263
33.91666
33.2735
32.86124
33.5087
34.04162
34.42364
34.71779
34.77732
34.5851
34.2653
33.7808
33.19548
32.74746
33.32291
33.86984
34.29711
34.58813
34.6562
34.45184
34.1166
33.62965
33.14082
32.6951
33.17988
33.72719
34.16141
34.45654
34.52766
34.32169
33.95992
33.51411
33.04123
33.052
33.58634
34.01527
34.32466
34.39323
34.19037
33.78898
33.35373
32.8153
33.11034
33.47634
33.8507
34.1509
34.2085
34.025
33.66205
33.23576
32.77789
32.75478
33.19829
33.62817
33.84906
33.88747
33.74843
33.44695
33.11193
32.95848
33.24708
33.49973
33.54454
33.41154
33.09957
32.64485
32.57689
32.97374
33.08067
33.13214
33.1084
32.82419
32.72508
32.76427
32.64153
33.15344
34.13591
35.09328
36.02604
36.4291
35.71565
34.55519
33.62765
33.14228
34.08238
35.05306
35.93523
36.25854
35.64496
34.52221
33.61543
33.12767
33.99247
34.98015
35.78565
36.05909
35.5369
34.46071
33.59685
33.90128
34.89367
35.64145
35.91664
35.41496
34.38655
33.4637
33.81723
34.80516
35.54487
35.811
35.31402
34.30848
33.35651
33.73092
34.71659
35.42435
35.79526
35.64153
35.18977
34.22957
33.26089
33.64313
34.62396
35.33754
35.7153
35.52679
35.03629
34.14687
33.17656
33.56017
34.53011
35.24964
35.64691
35.43392
34.89876
34.06341
33.09922
33.47841
34.4329
35.16622
35.57518
35.35906
34.78942
33.9764
33.01993
33.39692
34.3181
35.08493
35.4284
35.60508
35.26568
34.68556
33.87653
32.93645
33.31812
34.18456
34.96917
35.34146
35.52329
35.1861
34.57449
33.75063
32.85515
33.25625
34.0598
34.80013
35.28461
35.56178
35.42004
35.11645
34.46091
33.6115
32.8014
33.09127
33.93977
34.67076
35.19926
35.43676
35.5547
35.34282
35.01915
34.34598
33.47889
32.9465
33.81382
34.54583
35.13097
35.36629
35.54343
35.44427
35.27922
34.86963
34.21679
33.35754
32.80855
33.66948
34.41481
35.02989
35.31938
35.42063
35.44881
35.38918
35.20834
34.71554
34.07113
33.24255
32.85759
33.52625
34.25829
34.81351
35.12328
35.25872
35.26114
35.24233
35.05226
34.53715
33.90977
33.23887
33.24977
33.93155
34.46935
34.92675
35.06235
35.06749
35.0294
34.71054
34.24062
33.57432
32.86964
32.86952
33.53489
34.10201
34.5054
34.68891
34.71147
34.61907
34.34286
33.86899
33.23386
33.16747
33.68855
34.09646
34.28504
34.31151
34.21758
33.91185
33.44153
32.8369
32.71047
33.23929
33.64695
33.84002
33.88161
33.76162
33.42036
33.07056
32.73835
33.14268
33.33421
33.44007
33.27393
33.02901
32.69
32.92444
33.02801
32.79807
34.25829
35.60629
36.45836
36.00161
34.91189
33.59702
34.20523
35.52927
36.28371
35.90702
34.86398
33.57181
34.13323
35.39756
36.09277
35.75079
34.78141
33.52917
34.07018
35.25748
35.91157
35.58755
34.69093
33.46699
33.99437
35.13313
35.82536
35.48044
34.59425
33.39175
33.90633
34.98311
35.71222
35.36441
34.48992
33.31607
33.81482
34.84873
35.62392
35.27161
34.38518
33.24146
33.72088
34.74274
35.54585
35.18845
34.27972
33.16536
33.62023
34.64646
35.49188
35.11883
34.16909
33.0816
33.52329
34.55514
35.35363
35.58473
35.03897
34.06556
32.99709
33.43254
34.45985
35.24516
35.5155
34.94566
33.95998
32.91759
33.33424
34.35023
35.16883
35.48424
34.83985
33.83005
32.83054
33.17497
34.23667
35.08337
35.41068
34.68391
33.70014
33.05207
34.11716
35.00742
35.52298
35.30102
34.56314
33.58113
32.9152
33.97903
34.89955
35.48917
35.20404
34.44322
33.44915
32.89101
33.78107
34.69017
35.30802
35.52793
35.04976
34.27679
33.36836
33.53522
34.38258
35.07634
35.49214
35.29099
34.80086
33.97055
33.06508
33.23978
34.03658
34.7883
35.177
35.5021
35.3745
35.01201
34.40923
33.60054
32.76048
32.79295
33.62022
34.3455
34.88453
35.15188
35.29354
35.23014
35.26393
35.06966
34.6242
34.01589
33.21588
33.18903
33.89614
34.42417
34.77597
35.00478
35.01101
34.94814
34.6143
34.19763
33.55833
32.77817
32.76726
33.41934
33.98464
34.31874
34.50434
34.53797
34.44069
34.15281
33.7488
33.18455
32.88651
33.44398
33.79322
33.97806
34.03647
33.92208
33.65633
33.22748
32.90652
33.22408
33.38171
33.48892
33.35768
33.14314
32.71027
32.70665
32.84262
32.90409
32.82076
34.16417
35.54741
36.27562
34.81261
33.48302
34.14536
35.4798
36.1196
34.78824
33.45706
34.10045
35.3781
35.9461
34.74038
33.41101
34.03663
35.28384
35.80829
34.67512
33.35187
33.96035
35.18634
35.69265
34.59761
33.28434
33.87579
35.08718
35.57328
34.51212
33.21318
33.77965
34.98896
35.44666
34.41744
33.13666
33.67043
34.88673
35.60933
35.2755
34.30503
33.03688
33.55814
34.71673
35.53311
35.16614
34.17229
32.94547
33.44053
34.5918
35.45356
35.07283
34.04563
32.87924
33.29616
34.47806
35.40245
34.98884
33.9053
33.18942
34.36963
35.36073
34.90952
33.78019
33.09012
34.27772
35.27865
34.82537
33.68708
32.9847
34.18181
35.1322
35.46492
34.73526
33.58386
32.8679
34.04407
35.04312
35.41245
34.57632
33.45778
32.84714
33.83628
34.88227
35.28833
34.4061
33.35599
33.60504
34.65126
35.38469
34.99185
34.1473
33.08192
33.16218
34.26963
35.06078
35.41492
34.72388
33.7493
32.83723
33.83934
34.7558
35.33041
35.51674
35.07155
34.30997
33.38444
33.46244
34.29674
34.98281
35.44489
35.21021
34.71795
33.92081
32.98047
32.95834
33.78752
34.52153
35.02559
35.29638
35.38144
35.37311
35.38983
35.16137
34.84495
34.21684
33.44922
33.31529
34.01155
34.55187
34.91195
35.02241
35.03269
35.0081
34.7189
34.31224
33.69177
32.88167
32.78083
33.4495
33.99199
34.33931
34.4888
34.51404
34.45111
34.17311
33.6964
33.17448
32.8324
33.41146
33.74791
33.92398
33.95251
33.8594
33.56485
33.19123
32.78412
33.15681
33.3113
33.35024
33.21268
32.9549
32.75538
32.83127
33.75563
35.41418
36.13759
34.58025
33.737
35.35927
36.02097
34.5552
33.69942
35.25997
35.85984
34.50268
33.64776
35.14961
35.70158
34.43024
33.58758
35.04472
35.59982
34.34193
33.52148
34.93591
35.46933
34.23236
33.43484
34.75729
35.32543
34.07154
33.36918
34.62908
35.58195
35.17444
33.97579
33.27879
34.52103
35.51366
35.08415
33.88249
33.18056
34.42136
35.44074
34.99315
33.80573
33.08686
34.34095
35.36794
34.90149
33.73492
32.98461
34.25986
35.32471
34.82926
33.6441
32.89086
34.16507
35.24862
34.75496
33.53206
34.02367
35.09915
35.46699
34.65257
33.35296
33.82465
34.9969
35.40972
34.48544
33.19892
33.74816
34.83679
35.29641
34.32676
33.15602
33.50082
34.59085
35.4362
35.01612
34.08222
32.86338
33.11649
34.25951
35.25247
34.77783
33.7411
32.74507
33.86655
34.86213
35.28245
34.39402
33.34266
33.47798
34.46877
35.20509
35.50826
34.89095
34.00423
32.9224
32.9832
34.03091
34.85181
35.46689
35.16018
34.47345
33.5621
33.5432
34.37708
35.01914
35.48787
35.27404
34.76223
34.00283
33.02146
32.92666
33.81167
34.51678
35.02299
35.27613
35.35916
35.36419
35.38584
35.13939
34.81245
34.22037
33.44229
33.23411
33.97205
34.47498
34.82711
34.95818
34.95781
34.94293
34.62808
34.25116
33.62478
32.81385
33.30304
33.84596
34.16466
34.35937
34.39511
34.28155
34.02411
33.58471
32.91238
33.19148
33.49562
33.69807
33.75126
33.57538
33.34062
32.83953
32.80522
32.98206
33.07285
32.91431
33.46642
34.85591
36.40536
35.63244
34.1861
33.44202
34.82466
36.24158
35.56678
34.16753
33.4008
34.76534
36.04641
35.45425
34.12441
33.35199
34.69331
35.86109
35.32833
34.06578
33.29521
34.61998
35.76273
35.2379
33.99481
33.21715
34.54631
35.64294
35.13625
33.90689
33.15286
34.47187
35.55109
35.05428
33.80354
34.39015
35.46603
34.96804
33.67246
34.29802
35.40775
34.89302
33.57432
34.18021
35.33264
34.79818
33.47556
34.01522
35.24536
34.70207
33.36224
33.91215
35.13074
34.57626
33.27131
33.80437
34.98895
35.43461
34.43744
33.15711
33.70249
34.90209
35.37347
34.33361
33.02213
33.59529
34.83377
35.33395
34.2453
32.90387
33.44921
34.66924
35.19812
34.11475
33.16955
34.38831
35.34072
34.89528
33.82078
32.80919
34.10856
35.19536
34.68273
33.49878
33.73865
34.7951
35.25831
34.30455
33.08767
33.25556
34.38686
35.3446
34.87034
33.87861
32.81918
33.93265
34.92732
35.36917
34.54603
33.45192
33.48041
34.46197
35.30518
34.88432
34.02004
32.92316
32.86981
33.91754
34.77619
35.42799
35.08665
34.37906
33.47554
33.39052
34.23441
34.88101
35.36242
35.45629
35.1228
34.55922
33.8189
32.87075
32.75318
33.62557
34.29024
34.84008
35.08427
35.19054
35.2452
35.15442
34.94329
34.55715
33.99555
33.2089
32.8923
33.63449
34.16945
34.49113
34.64071
34.66202
34.59374
34.35559
33.94198
33.31441
32.86264
33.47778
33.80148
33.96244
33.99824
33.90657
33.62593
33.19445
32.75751
33.06158
33.24166
33.30022
33.18161
32.93323
33.45866
34.53715
36.14215
35.39067
33.85476
33.43956
34.50943
36.01957
35.333
33.83811
33.40101
34.44741
35.84775
35.22366
33.79702
33.34004
34.34654
35.68851
35.10768
33.73118
33.25466
34.24379
35.55818
34.98884
33.61759
33.18324
34.14635
35.41502
34.81609
33.52624
33.12016
34.05994
35.31144
34.68565
33.41016
33.98013
35.20886
34.58992
33.28406
33.88948
35.11666
34.50141
33.18594
33.78768
34.982
35.46599
34.41378
33.09651
33.68763
34.89614
35.39285
34.3263
33.01675
33.58173
34.81478
35.3281
34.22244
32.94702
33.41696
34.72718
35.2602
34.06115
33.28511
34.63333
35.18677
33.94601
33.13417
34.49981
35.08992
33.8225
33.08771
34.33349
35.38596
34.88756
33.74197
34.03851
35.19643
34.64337
33.40338
33.75615
34.87882
35.37199
34.34421
33.06439
33.34275
34.59354
35.11695
33.99721
32.93651
34.23085
35.23415
34.72947
33.65399
33.8126
34.81187
35.32042
34.34365
33.15424
33.2522
34.37127
35.30647
34.8373
33.87221
32.74641
33.88118
34.81774
35.26807
34.374
33.36727
33.35231
34.31877
35.05981
35.43425
34.72949
33.84773
32.75873
33.71485
34.50304
35.12068
35.4432
34.85858
34.15397
33.15847
32.9936
33.86006
34.54032
35.04584
35.32431
35.40236
35.38811
35.38431
35.19531
34.83971
34.25161
33.50227
33.19656
33.92641
34.40537
34.69249
34.89385
34.89829
34.85184
34.56712
34.15561
33.58694
32.77241
33.18742
33.62371
34.01222
34.19177
34.21104
34.12715
33.87343
33.43769
32.79555
32.82095
33.18559
33.39033
33.40184
33.34312
33.0809
33.5306
34.39137
35.50476
36.33538
34.82901
33.9348
33.51529
34.37215
35.4499
36.1842
34.80133
33.92212
33.4852
34.3317
35.35339
35.99796
34.7463
33.8901
33.44309
34.27771
35.24765
35.82493
34.67818
33.84409
33.39087
34.21537
35.14671
35.69802
34.6063
33.78804
33.32993
34.14254
35.0662
35.6022
34.52437
33.72337
33.26226
34.05763
34.97427
35.52318
34.429
33.65286
33.1898
33.94542
34.87484
35.41439
34.33224
33.57132
33.11775
33.82154
34.7539
35.3031
34.22707
33.46816
33.71487
34.63305
35.20768
34.12011
33.34703
33.61616
34.52971
35.12832
34.01254
33.24416
33.5182
34.42688
35.03448
33.89844
33.14201
33.40281
34.33129
35.40206
34.91389
33.74237
33.0403
33.27064
34.23555
35.32152
34.82509
33.62881
32.95141
33.10999
34.11556
35.27412
34.74408
33.49339
33.07205
33.95142
35.09278
34.56324
33.39119
33.70756
34.81588
35.33986
34.26781
33.06111
33.30573
34.58639
35.142
33.95741
32.9012
34.24775
35.29077
34.77053
33.64001
33.88492
35.01576
34.47209
33.1863
33.39266
34.60563
35.15213
34.03335
32.90644
34.20262
35.21218
34.707
33.62573
33.70368
34.72962
35.21112
34.24014
33.04034
33.08145
34.22991
35.06676
35.44249
34.66805
33.71021
33.67665
34.5957
35.37979
34.96365
34.14479
33.05759
32.92271
33.93455
34.73886
35.39908
35.05994
34.35751
33.50854
33.29165
34.10148
34.76972
35.20811
35.43227
35.36553
35.01765
34.44167
33.72523
32.756
33.39861
34.06734
34.52702
34.87473
34.98415
34.97821
34.99081
34.76848
34.35542
33.73383
32.93718
33.25197
33.73119
34.11349
34.25281
34.25725
34.21741
33.98101
33.57181
32.88907
32.97686
33.31951
33.44313
33.46108
33.40377
33.12177
32.7654
33.62457
34.45069
35.34284
36.35287
35.87365
34.89196
33.9793
33.27013
33.59805
34.43403
35.29904
36.20697
35.79254
34.86595
33.97155
33.27369
33.55362
34.39717
35.22262
36.02879
35.66803
34.81509
33.94657
33.50142
34.34614
35.13792
35.8636
35.54059
34.75179
33.90525
33.44397
34.2858
35.05874
35.78354
35.46293
34.68372
33.84981
33.38116
34.21814
34.97846
35.68942
35.37213
34.61122
33.78584
33.31391
34.14323
34.89369
35.61494
35.29426
34.53286
33.71532
33.24268
34.05859
34.79818
35.51346
35.20727
34.44378
33.63932
33.16867
33.95573
34.69488
35.43988
35.12864
34.33706
33.55866
33.09312
33.80389
34.59536
35.34437
35.01878
34.2231
33.4604
33.71023
34.4887
35.24262
34.83619
34.12179
33.33122
33.61338
34.39123
35.18437
34.72794
34.02309
33.23127
33.51524
34.29367
35.10781
34.63062
33.92027
33.12871
33.40798
34.17868
34.99233
35.46959
34.52987
33.78578
33.0252
33.25212
34.06803
34.90726
35.40099
34.42911
33.63388
32.93845
33.20811
33.93083
34.73753
35.24891
34.26981
33.5704
33.63036
34.475
35.00786
33.98752
33.24398
33.21934
34.1795
35.2599
34.71817
33.61839
33.84405
35.00312
34.45985
33.13086
33.37165
34.58971
35.18495
34.04497
32.9054
34.24515
35.29959
34.7646
33.66602
33.82968
34.90634
35.37459
34.42211
33.10688
33.23065
34.48785
35.39944
34.9442
33.9001
33.92898
34.94686
35.36712
34.50745
33.30558
33.31421
34.49184
35.36017
34.89354
33.92278
33.85446
34.74195
35.44695
35.11553
34.30196
33.2514
33.13354
34.18491
34.88403
35.4425
35.20011
34.58322
33.70163
33.46967
34.25494
34.85457
35.29636
35.41873
35.08158
34.60925
33.87949
32.89109
33.50148
34.12512
34.59817
34.92232
35.03599
35.02257
34.98608
34.81083
34.39794
33.83423
33.02062
33.31415
33.89541
34.17515
34.31949
34.35368
34.25498
34.02861
33.60302
32.93927
33.02433
33.33927
33.47302
33.49785
33.42131
33.13447
32.74702
33.69696
34.5602
35.41694
36.39129
35.90941
34.97336
34.13724
33.29271
33.68608
34.52468
35.36816
36.24363
35.82938
34.93825
34.1063
33.28545
33.62069
34.46794
35.28505
36.06702
35.70408
34.87733
34.01631
33.28688
33.55856
34.40384
35.19463
35.90144
35.57541
34.80601
33.96341
33.47985
34.33316
35.11134
35.82546
35.49725
34.73171
33.89352
33.40591
34.26068
35.03115
35.73261
35.40858
34.65704
33.82151
33.33555
34.18636
34.95043
35.64586
35.32883
34.58129
33.74873
33.26458
34.10784
34.86394
35.51535
35.74365
35.22748
34.50138
33.67354
33.19207
34.02181
34.7669
35.4004
35.6919
35.10674
34.41218
33.59552
33.11909
33.9177
34.65289
35.31895
35.61145
34.99281
34.30206
33.51389
33.03594
33.76828
34.55487
35.25091
35.53388
34.90386
34.19006
33.39841
33.67504
34.46537
35.17818
35.48681
34.81839
34.09233
33.28739
33.56878
34.37041
35.09403
35.40845
34.72552
33.98791
33.17284
33.45592
34.25845
34.95437
35.32539
34.61141
33.86589
33.05865
33.30569
34.12788
34.84352
35.5091
35.24227
34.49598
33.68183
32.9478
33.25697
33.99961
34.69851
35.35985
35.07124
34.36135
33.62702
32.96722
33.69589
34.42828
35.15512
34.81764
34.08275
33.31513
33.32236
34.08689
34.86793
35.37645
34.41695
33.693
32.93191
32.91997
33.67485
34.57325
35.09381
34.05103
33.30927
33.24717
34.18827
35.28734
34.75076
33.63042
32.8853
33.80959
34.92309
34.41118
33.09906
33.26564
34.52024
35.07326
33.94136
34.02435
35.18212
34.5893
33.37586
33.56033
34.63569
35.18065
34.16111
32.8055
32.87345
34.17502
35.15588
34.64378
33.63842
33.60082
34.58032
35.41604
35.00056
34.14485
32.88232
32.79752
33.95935
34.86561
35.31373
34.49017
33.49653
33.20742
34.23802
34.93991
35.3234
34.61065
33.81179
33.51249
34.27733
34.86608
35.37996
35.09951
34.61852
33.91259
32.95548
33.51011
34.13231
34.70592
34.94152
35.06674
35.13885
34.98548
34.83411
34.41532
33.84411
33.02525
33.29911
33.86935
34.15579
34.29378
34.31404
34.23437
34.01182
33.58895
32.92214
32.83924
33.2495
33.41257
33.42421
33.3679
33.07745
33.62471
34.56035
35.46673
36.42054
35.95177
35.00917
34.08082
33.59824
34.52486
35.4146
36.27293
35.86693
34.97064
34.01973
33.55402
34.46817
35.326
36.10518
35.75085
34.90157
33.98641
33.50203
34.40442
35.22963
35.94649
35.62298
34.82543
33.93435
33.44472
34.33423
35.14063
35.854
35.53186
34.74685
33.8754
33.38198
34.26173
35.05798
35.76163
35.43969
34.67038
33.80899
33.31465
34.18719
34.98
35.68117
35.36188
34.59555
33.73797
33.24348
34.10871
34.90014
35.60193
35.2793
34.51841
33.66245
33.1694
34.02289
34.81352
35.50851
35.72786
35.19356
34.4343
33.58326
33.09376
33.91872
34.70782
35.37875
35.66497
35.07055
34.33051
33.49825
33.76913
34.59365
35.29862
35.60279
34.95839
34.21033
33.37115
33.6758
34.5008
35.2387
35.55552
34.87104
34.11222
33.26499
33.56928
34.40492
35.15971
35.48813
34.77881
34.00573
33.15627
33.45629
34.29486
35.06544
35.62684
35.3603
34.6758
33.88256
33.04674
33.30587
34.16197
34.91155
35.55897
35.26544
34.54843
33.69667
32.94207
33.25736
34.0427
34.75328
35.42167
35.10059
34.41256
33.64371
32.9677
33.71118
34.47087
35.11603
35.46204
34.80398
34.11736
33.33864
33.35091
34.12323
34.79541
35.46227
35.14955
34.47006
33.72239
32.94424
32.9393
33.71814
34.45563
35.18973
34.84206
34.11322
33.3511
33.31442
34.05556
34.8292
35.37403
34.38784
33.6813
32.91292
32.86928
33.62748
34.50892
35.04273
33.99818
33.23818
33.09826
34.05445
35.14546
34.60031
33.50496
33.58005
34.67266
35.25158
34.13578
32.88993
32.93902
34.24628
35.29311
34.76703
33.68192
33.7733
34.77254
35.3122
34.34551
32.98816
33.03262
34.26215
35.27254
34.76023
33.76831
33.70403
34.63979
35.16209
34.20869
32.99383
32.85583
34.0414
34.87403
35.31241
34.51581
33.57637
33.33079
34.24567
34.92923
35.31387
34.61223
33.83992
32.72639
33.5035
34.26508
34.8397
35.36775
35.08907
34.61148
33.89952
32.95594
33.47676
34.09473
34.54445
34.89202
34.96891
34.9615
34.93638
34.77757
34.36672
33.80761
32.99626
33.22119
33.684
34.0522
34.21169
34.21785
34.15735
33.94153
33.53812
32.85755
32.77304
33.12666
33.35127
33.37071
33.2518
33.01987
33.53064
34.45075
35.41704
36.42061
35.93386
34.92878
33.95805
33.51532
34.43408
35.36823
36.27306
35.84843
34.8999
33.94784
33.48523
34.39721
35.28503
36.1055
35.72464
34.84644
33.91912
33.44313
34.34615
35.19452
35.94699
35.60171
34.78047
33.87588
33.39092
34.28577
35.11131
35.85458
35.51851
34.71008
33.82171
33.32995
34.21806
35.03146
35.76227
35.42821
34.63663
33.7591
33.26233
34.14322
34.951
35.68182
35.34985
34.5592
33.68922
33.18986
34.05869
34.86441
35.6025
35.26128
34.4741
33.61322
33.11781
33.95587
34.76715
35.509
35.1763
34.37513
33.52858
33.80409
34.65296
35.37929
35.67151
35.03366
34.25837
33.40563
33.71044
34.555
35.29919
35.61064
34.93508
34.15819
33.29756
33.6136
34.46559
35.23922
35.55879
34.8486
34.06164
33.1931
33.51548
34.37079
35.16036
35.49207
34.75693
33.95985
33.09503
33.40827
34.25894
35.06676
35.65785
35.3818
34.65142
33.83942
32.99423
33.25249
34.12851
34.91463
35.59459
35.28867
34.52661
33.65892
33.20848
34.0001
34.75786
35.45293
35.12241
34.38996
33.60437
33.69626
34.47082
35.16591
35.51222
34.82392
34.10452
33.28643
33.32258
34.12303
34.83549
35.4765
35.1706
34.48599
33.71067
32.92407
32.92018
33.71883
34.50383
35.14583
35.48795
34.87697
34.13284
33.33668
33.31485
34.09231
34.75251
35.42691
35.10545
34.43356
33.6973
32.90089
32.8695
33.64503
34.36905
35.09454
34.74972
34.02395
33.26138
33.1725
33.94495
34.69191
35.2834
34.27703
33.57527
33.38519
34.24983
35.27416
34.7576
33.73622
32.9527
33.80112
34.89126
34.37108
33.05618
33.09184
34.38391
34.91138
33.84601
33.85616
34.9167
34.38853
33.12949
33.13459
34.35551
35.2966
34.77857
33.83399
33.73344
34.69534
35.18697
34.22604
33.07461
32.86037
34.10169
34.8688
35.29685
34.51666
33.58195
33.23062
34.21624
34.91816
35.30209
34.58307
33.80458
33.44397
34.22022
34.79924
35.21967
35.36975
35.02609
34.56229
33.85256
32.86794
33.38528
34.02296
34.45598
34.80152
34.94389
34.91394
34.88629
34.69901
34.27326
33.70919
32.91217
33.10032
33.57583
33.94984
34.13775
34.1585
34.04169
33.80892
33.35602
32.78053
32.96682
33.20838
33.22681
33.1122
32.81761
33.45866
34.39137
35.34286
36.39132
35.88435
34.85626
33.90737
33.43956
34.37215
35.29906
36.24367
35.80459
34.82956
33.89263
33.401
34.3317
35.22262
36.06708
35.68186
34.77775
33.85625
33.34004
34.27766
35.13791
35.90153
35.55555
34.714
33.80415
33.25467
34.21528
35.05878
35.8256
35.47779
34.64607
33.74064
33.18321
34.14242
34.97849
35.7328
35.38476
34.57263
33.66428
33.12012
34.05755
34.89358
35.64608
35.28669
34.49204
33.57378
33.94538
34.79807
35.51552
35.17768
34.3979
33.48877
33.82153
34.69484
35.40053
35.70185
35.05448
34.29173
33.36389
33.7149
34.59539
35.31907
35.64581
34.95449
34.18719
33.26222
33.61622
34.48878
35.25105
35.57866
34.86821
34.07895
33.16085
33.51828
34.39136
35.17839
35.51928
34.78241
33.97579
33.04768
33.40291
34.29384
35.09434
35.41895
34.69189
33.86449
32.95181
33.27076
34.17887
34.9548
35.62759
35.30776
34.58537
33.70082
33.1101
34.06819
34.84397
35.56088
35.23197
34.48204
33.57658
33.07213
33.93094
34.69855
35.42622
35.07045
34.33045
33.50371
33.63036
34.42805
35.11588
35.48199
34.7717
34.04016
33.1745
33.21935
34.0868
34.79523
35.47661
35.13137
34.45979
33.668
33.67481
34.45548
35.14614
35.51969
34.79312
34.09075
33.24981
33.24714
34.05537
34.75294
35.43831
35.08637
34.42159
33.66158
33.62747
34.36898
35.01185
35.35657
34.68801
34.017
33.20015
33.09841
33.94555
34.58534
35.31149
34.93749
34.28794
33.56507
33.38504
34.10058
34.81078
35.35139
34.41387
33.7484
32.92792
33.59153
34.42646
34.94705
33.95143
33.14647
32.89023
33.92966
34.97133
34.43266
33.32587
33.24086
34.47534
34.99312
33.92631
33.91328
34.95257
34.45699
33.20359
33.16431
34.35634
35.27264
34.78833
33.87435
33.68391
34.64315
35.1763
34.19678
33.01001
32.75674
33.99757
34.82852
35.25206
34.46415
33.54142
33.1071
34.142
34.84314
35.35306
35.1787
34.52757
33.69152
33.26007
34.12609
34.68819
35.09562
35.3541
35.27048
34.89118
34.40161
33.73318
32.6829
33.14605
33.82161
34.32587
34.59371
34.82219
34.82696
34.77118
34.47692
34.10851
33.55752
32.69054
32.78671
33.3822
33.69024
33.93593
33.94371
33.8782
33.58397
33.1218
32.747
32.90471
32.95185
32.85236
33.46641
34.53714
35.50476
36.35287
35.94999
35.00155
34.0216
33.44201
34.50942
35.4499
36.20697
35.85935
34.96502
34.00088
33.40079
34.44739
35.35339
36.02879
35.72567
34.89348
33.95462
33.35198
34.34649
35.24766
35.86361
35.5929
34.80041
33.88861
33.29519
34.24377
35.1467
35.78356
35.51111
34.70775
33.77322
33.21713
34.14633
35.06618
35.68943
35.41401
34.61818
33.67828
33.15285
34.05992
34.97425
35.61497
35.32727
34.52559
33.5652
33.98012
34.87483
35.51349
35.22101
34.43785
33.47536
33.88948
34.75391
35.43992
35.10205
34.3416
33.37622
33.7877
34.63308
35.34442
35.57629
35.01005
34.23598
33.27438
33.68766
34.52975
35.24269
35.49393
34.92765
34.12637
33.17232
33.58176
34.42694
35.18446
35.45779
34.83999
33.99086
33.08767
33.417
34.33136
35.1079
35.39808
34.75674
33.89944
33.00517
33.28517
34.23562
34.99243
35.31586
34.66945
33.78458
33.13423
34.11563
34.90736
35.50927
35.24741
34.52049
33.6551
33.08778
33.9515
34.73761
35.35994
35.08787
34.35845
33.54541
33.70767
34.47507
35.15508
35.45324
34.82363
34.1059
33.2184
33.30593
34.17962
34.86793
35.46221
35.19342
34.56699
33.80002
32.90157
33.84428
34.57324
35.18964
35.46866
34.87552
34.20281
33.35517
33.37186
34.18808
34.82899
35.42687
35.14801
34.5511
33.84361
32.92611
32.90506
33.80922
34.50865
35.09446
35.3776
34.7811
34.15276
33.34127
33.26534
34.05425
34.69178
35.31142
35.01291
34.44127
33.74023
33.57996
34.24978
34.8107
35.13884
34.55106
33.94158
33.10061
32.93901
33.80109
34.42642
35.04518
34.67235
34.06722
33.36193
33.09175
33.92967
34.58736
35.13251
34.29017
33.56108
33.24389
34.17895
35.13934
34.5949
33.70468
33.62734
34.58324
35.12127
34.15246
32.87744
34.11376
35.05121
34.52553
33.49537
33.37954
34.40669
34.93821
34.06759
33.82499
34.69089
35.10836
34.31048
33.20093
32.89888
34.11482
34.83223
35.18741
34.43527
33.70134
33.14478
34.1591
34.82969
35.1299
34.47608
33.79382
33.26965
34.03856
34.59888
35.00292
35.26889
35.1318
34.85647
34.36726
33.78985
32.73293
33.0313
33.86561
34.32636
34.60949
34.6973
34.70521
34.70594
34.47509
34.04963
33.51305
32.79123
33.32576
33.71285
33.82938
33.88953
33.82091
33.57487
33.12444
32.78713
33.01542
32.98045
32.94729
33.75563
34.85591
36.14217
35.48991
34.25103
33.28426
33.737
34.82466
36.01958
35.42901
34.23531
33.26305
33.69942
34.76534
35.84776
35.32365
34.19473
33.22554
33.64776
34.69331
35.68851
35.21786
34.13915
33.17651
33.58758
34.61998
35.55816
35.82826
35.13174
34.07676
33.12119
33.52148
34.54631
35.415
35.7168
35.03355
34.01214
33.06822
33.43485
34.47187
35.31143
35.62846
34.94006
33.95051
33.02956
33.36918
34.39016
35.20887
35.52934
34.84201
33.88411
33.27879
34.29803
35.11666
35.44883
34.74496
33.8022
33.18057
34.18022
34.98202
35.35491
34.6148
33.70775
33.08687
34.01524
34.89616
35.3034
34.4788
33.59223
32.98462
33.91217
34.81481
35.21955
34.38062
33.44576
32.89088
33.8044
34.72722
35.4021
35.09813
34.28849
33.32664
33.70253
34.63337
35.32157
35.00005
34.18724
33.19609
33.59533
34.49987
35.27418
34.88331
34.05312
33.06622
33.44926
34.33357
35.09287
35.40929
34.72097
33.91462
33.01997
33.16965
34.03865
34.81605
35.20601
34.49618
33.65616
32.80934
33.75639
34.5868
35.26032
34.94959
34.17809
33.25911
33.34311
34.24872
35.00545
35.31228
34.60831
33.85732
32.8862
32.9367
33.88551
34.6114
35.28354
34.97975
34.26252
33.3929
33.3917
34.24394
34.92052
35.25575
34.57779
33.87749
32.9399
32.90586
33.82906
34.51961
35.14507
34.80166
34.18825
33.35026
33.23043
34.02423
34.67271
35.2742
35.02008
34.42086
33.70419
32.80875
33.56045
34.24673
34.89152
35.18816
34.55291
33.91344
33.08854
32.87342
33.77313
34.38335
34.97085
35.25639
34.6332
34.06612
33.31105
33.03218
33.85559
34.47488
35.13917
34.77765
34.16941
33.44665
33.13427
33.91305
34.58309
35.12599
34.28196
33.59933
33.16416
34.11368
35.06321
34.52564
33.61758
32.76525
33.37949
34.45626
35.00503
34.05782
33.97952
34.8481
34.35745
33.20209
32.98603
34.14879
35.09362
34.61485
33.71542
33.48724
34.38181
35.16469
34.81931
34.04031
32.75258
33.66259
34.43654
35.15386
34.8522
34.09592
33.06073
32.57199
33.73495
34.41106
34.97375
35.19239
34.68115
34.128
33.15536
32.66293
33.5539
34.16526
34.59632
34.95986
35.02909
35.04541
35.0222
34.76535
34.41484
33.87672
33.17461
33.28243
33.78734
34.15757
34.28771
34.31239
34.25781
34.01703
33.58732
32.86308
32.72578
33.28804
33.63301
33.83543
33.87973
33.78993
33.50336
33.03977
32.7595
33.1554
33.35449
33.38311
33.26528
32.97446
32.65574
32.8879
32.87871
32.81405
34.16418
35.41418
36.40536
35.93752
34.78991
33.59727
34.14536
35.35928
36.24158
35.84249
34.76055
33.56272
34.10046
35.25997
36.04642
35.70552
34.7027
33.50365
34.03663
35.14961
35.86109
35.54971
34.62559
33.43847
33.96035
35.04472
35.76273
35.44224
34.53624
33.36751
33.87579
34.93591
35.64294
35.28069
34.43917
33.29478
33.77965
34.7573
35.55109
35.16226
34.31778
33.21921
33.67043
34.62908
35.46604
35.06741
34.18604
33.13663
33.55815
34.52103
35.40776
34.98568
34.05174
33.04755
33.44053
34.42136
35.33265
34.90055
33.8946
32.964
33.29616
34.34096
35.24537
34.82985
33.80734
32.86968
33.18943
34.25987
35.13076
35.41849
34.73996
33.72547
33.09013
34.16508
34.98897
35.33938
34.64419
33.63728
32.98471
34.02368
34.90211
35.28084
34.48015
33.5223
32.86792
33.82467
34.8338
35.2502
34.35706
33.37691
32.84715
33.74819
34.66927
35.386
35.07781
34.23559
33.22485
33.50085
34.38835
35.1965
34.78975
33.92513
33.0071
33.11652
34.10861
34.8789
35.25281
34.5433
33.64568
32.74509
33.73868
34.5936
35.29091
34.98806
34.17688
33.19008
33.25554
34.23079
35.01568
35.31776
34.60316
33.80103
32.80241
32.8191
33.81246
34.6054
35.29938
34.99304
34.23467
33.27535
33.25208
34.20245
34.90617
35.29592
34.57313
33.78678
32.8003
32.74632
33.70358
34.48776
35.18204
34.76654
34.11124
33.18467