/*--------------------------------*- C++ -*----------------------------------*\
| =========                 |                                                 |
| \\      /  F ield         | OpenFOAM: The Open Source CFD Toolbox           |
|  \\    /   O peration     | Version:  5.x                                   |
|   \\  /    A nd           | Web:      www.OpenFOAM.org                      |
|    \\/     M anipulation  |                                                 |
\*---------------------------------------------------------------------------*/
FoamFile
{
    version     2.0;
    format      ascii;
    class       volScalarField;
    location    "24/tissue";
    object      T;
}
// * * * * * * * * * * * * * * * * * * * * * * * * * * * * * * * * * * * * * //

dimensions      [0 0 0 1 0 0 0];

internalField   nonuniform List<scalar> 
87936
(
32.72994
33.13282
33.15232
33.03369
32.73205
33.11619
33.13589
33.01977
32.76068
33.08403
33.10278
32.99996
32.81
33.04178
33.06133
32.96135
32.96884
33.02294
32.73358
32.92538
32.99853
32.67205
32.89265
32.98684
32.69224
32.78966
32.98179
32.78296
33.20882
33.67649
34.06705
34.43845
34.50787
34.28962
33.92787
33.30046
32.88859
33.15634
33.63658
34.02387
34.39515
34.46771
34.24267
33.88828
33.28395
32.90008
33.00589
33.5352
33.92692
34.30315
34.38558
34.13674
33.80157
33.24327
32.83894
33.30435
33.82188
34.19051
34.28122
34.00702
33.64807
33.20695
32.77516
33.22132
33.75855
34.07289
34.16237
33.89728
33.56568
33.15616
32.70633
33.13177
33.65841
33.91996
34.02158
33.75748
33.46862
33.08398
32.63746
33.03964
33.5194
33.72907
33.86204
33.59668
33.34669
33.00341
32.5709
32.94719
33.38143
33.53957
33.67469
33.4649
33.20542
32.91309
32.50552
32.86032
33.22775
33.37153
33.46407
33.31994
33.0046
32.78284
32.83412
33.09885
33.28701
33.35406
33.22128
32.8467
32.5865
32.75818
32.9757
33.19784
33.25106
33.12117
32.76888
32.44927
32.64995
32.7915
33.09623
33.14861
32.98992
32.76472
32.3777
32.57206
32.68057
32.98345
33.04397
32.83097
32.69124
32.34952
32.36174
32.67324
32.86332
32.93169
32.66219
32.5807
32.31593
32.55955
32.64313
32.72844
32.56642
32.50372
32.58333
32.64875
32.68588
32.62212
32.4011
32.34523
32.47074
32.2624
33.5443
34.42269
35.144
35.85174
36.07611
36.12293
35.98778
35.45491
34.81733
34.04899
33.11957
33.52475
34.37328
35.07543
35.73803
35.93704
35.9736
35.87183
35.37906
34.75859
34.02454
33.09515
33.48017
34.29361
34.95493
35.57126
35.74291
35.7616
35.68694
35.24923
34.66004
33.97521
33.05422
33.4175
34.1992
34.83234
35.37177
35.53369
35.54006
35.47786
35.09617
34.56665
33.89702
32.99939
33.34386
34.09129
34.70006
35.14411
35.35757
35.39564
35.31579
34.94303
34.45497
33.80305
32.93544
33.26342
33.97893
34.56582
34.97197
35.18374
35.22073
35.14702
34.78833
34.33272
33.69592
32.86374
33.17893
33.85583
34.42375
34.81323
35.04274
35.05541
34.95811
34.63286
34.18645
33.56442
32.78041
33.09028
33.72263
34.27551
34.6609
34.88454
34.91838
34.79485
34.47652
34.0314
33.37684
32.67295
33.02756
33.5943
34.14024
34.51834
34.74431
34.78202
34.65787
34.33348
33.87937
33.2331
32.60214
32.91174
33.48101
34.00756
34.37201
34.61416
34.65661
34.51733
34.19925
33.73823
33.09958
32.5435
32.71385
33.35843
33.85531
34.20752
34.4828
34.53426
34.36625
34.04744
33.6006
32.98833
32.56883
33.19007
33.69362
34.05395
34.3421
34.40412
34.20954
33.90449
33.44761
32.89181
32.43876
32.98937
33.5076
33.91398
34.19612
34.26509
34.06106
33.74215
33.28084
32.81714
32.36955
32.83233
33.35118
33.76748
34.05229
34.12198
33.92012
33.57356
33.14998
32.70154
32.69032
33.19754
33.61224
33.91245
33.97775
33.78134
33.39207
32.97734
32.46229
32.71976
33.06956
33.43682
33.73182
33.78776
33.60752
33.2507
32.83942
32.40096
32.3476
32.77718
33.19825
33.42206
33.4619
33.32003
33.0181
32.6914
32.52006
32.81136
33.06798
33.11564
32.97691
32.66333
32.21788
32.13409
32.52902
32.64905
32.70302
32.66543
32.37574
32.28922
32.33135
32.20208
33.05468
34.02645
34.98484
35.94583
36.36993
35.62179
34.44341
33.5233
33.04039
33.96822
34.93512
35.83398
36.1648
35.53561
34.40408
33.5076
33.01838
33.86818
34.84388
35.65084
35.92112
35.40086
34.32952
33.4803
33.7631
34.7343
35.4662
35.73686
35.24614
34.23794
33.3338
33.66165
34.62077
35.33288
35.5888
35.11368
34.1397
33.21062
33.55585
34.50639
35.17643
35.51511
35.37967
34.95991
34.0387
33.09685
33.44748
34.38823
35.05166
35.3902
35.22541
34.77841
33.93318
32.99331
33.34391
34.27016
34.9324
35.28535
35.09942
34.61468
33.82742
32.89643
33.24233
34.15069
34.82128
35.19498
34.99514
34.48055
33.71949
32.79802
33.14219
34.01546
34.716
35.02178
35.16297
34.87709
34.35314
33.60016
32.69665
33.04578
33.8628
34.57915
34.90307
35.06672
34.7654
34.22004
33.4561
32.59868
32.96444
33.72045
34.3934
34.81975
35.04681
34.94674
34.67125
34.0875
33.30034
32.52845
32.78186
33.58391
34.24827
34.71274
34.93492
35.01528
34.84523
34.55777
33.95628
33.15202
32.62163
33.4433
34.10902
34.62007
34.84951
34.99169
34.90503
34.75772
34.3964
33.81354
33.01497
32.46946
33.28632
33.96671
34.50957
34.78263
34.89356
34.89855
34.85653
34.66737
34.23496
33.65634
32.88533
32.49403
33.12571
33.79997
34.296
34.59272
34.72579
34.72836
34.69942
34.50709
34.05104
33.48168
32.85649
32.82781
33.46369
33.95539
34.37812
34.52316
34.53401
34.48072
34.17311
33.748
33.13118
32.46505
32.43002
33.0621
33.59222
33.97407
34.15917
34.18696
34.08548
33.81606
33.37623
32.77862
32.68968
33.18751
33.58119
33.77222
33.80386
33.70142
33.40087
32.95132
32.37032
32.23104
32.74674
33.14799
33.34472
33.38953
33.26413
32.92537
32.57746
32.25124
32.65687
32.85566
32.96217
32.79071
32.53679
32.20978
32.45354
32.55884
32.32357
34.15541
35.51759
36.40372
35.92497
34.81105
33.49799
34.09735
35.42748
36.19448
35.80992
34.75548
33.46915
34.01482
35.27273
35.96106
35.62146
34.65795
33.41745
33.93778
35.10457
35.72637
35.42083
34.54885
33.34286
33.84495
34.9541
35.59991
35.27985
34.43173
33.25233
33.73816
34.77718
35.45176
35.12949
34.30543
33.1596
33.6272
34.61675
35.32514
35.00517
34.17857
33.06711
33.51337
34.48449
35.21825
34.8925
34.05061
32.97258
33.39279
34.36341
35.13387
34.79446
33.91776
32.87035
33.27715
34.24961
34.96994
35.16923
34.68985
33.79377
32.76837
33.16906
34.13404
34.83636
35.05923
34.57578
33.66956
32.67238
33.05435
34.00641
34.73303
34.99728
34.45182
33.52271
32.56944
32.87634
33.8768
34.62584
34.90892
34.28067
33.37672
32.73778
33.74281
34.53084
34.95561
34.77959
34.1445
33.24306
32.58668
33.59174
34.41248
34.89927
34.6674
34.01173
33.09678
32.5406
33.37963
34.19864
34.72073
34.90693
34.5029
33.83304
32.99565
33.11183
33.88196
34.48113
34.83758
34.66696
34.24712
33.51281
32.66678
32.79664
33.53225
34.19697
34.53069
34.83706
34.70409
34.38958
33.86443
33.13282
32.3435
32.33933
33.11663
33.777
34.25491
34.50831
34.65729
34.61983
34.61869
34.41965
34.02506
33.48006
32.73938
32.68558
33.3485
33.83569
34.17023
34.38445
34.40102
34.33093
34.01455
33.62664
33.0333
32.29472
32.26197
32.8869
33.42392
33.74602
33.93467
33.97362
33.86654
33.58675
33.19932
32.66018
32.36476
32.90725
33.25225
33.44716
33.50886
33.38394
33.11572
32.696
32.38468
32.70829
32.88186
32.99035
32.84766
32.61837
32.1908
32.20579
32.36064
32.42573
32.32746
34.06435
35.46214
36.21831
34.71478
33.38687
34.0411
35.3824
36.03687
34.68389
33.35725
33.98669
35.25988
35.82982
34.62283
33.30312
33.90965
35.14098
35.65703
34.54018
33.23253
33.81783
35.01646
35.50461
34.4429
33.15134
33.71634
34.88956
35.35125
34.3364
33.0651
33.60225
34.76434
35.19008
34.22067
32.97196
33.47467
34.63798
35.28211
34.98878
34.08753
32.85496
33.34435
34.44602
35.17894
34.85408
33.93465
32.74674
33.20924
34.30057
35.07388
34.73789
33.78917
32.66582
33.04792
34.1673
34.99349
34.62949
33.63155
32.9233
34.04089
34.93268
34.52966
33.48988
32.80845
33.93253
34.82567
34.42736
33.38113
32.68867
33.82186
34.66006
34.93223
34.3218
33.26293
32.55735
33.67125
34.55497
34.86387
34.15225
33.12285
32.51483
33.45
34.38713
34.73064
33.97049
33.00148
33.19656
34.14132
34.75288
34.42613
33.69474
32.70211
32.73876
33.76015
34.43272
34.72413
34.15591
33.28885
32.39958
33.33354
34.14216
34.61787
34.7715
34.40377
33.75626
32.9146
32.95369
33.70964
34.30608
34.70348
34.50598
34.07966
33.37424
32.50037
32.45134
33.22707
33.89228
34.3365
34.57927
34.69418
34.69932
34.674
34.46905
34.17587
33.61958
32.91414
32.76981
33.42093
33.91529
34.24599
34.38059
34.39836
34.34832
34.07093
33.69557
33.12397
32.35795
32.24811
32.88803
33.40316
33.73731
33.90428
33.93514
33.85482
33.57665
33.12343
32.62325
32.29121
32.85511
33.19139
33.38358
33.41799
33.30977
33.00846
32.63733
32.25182
32.62746
32.80204
32.84657
32.69611
32.42356
32.26534
32.3448
33.65794
35.32639
36.07715
34.48171
33.63546
35.26171
35.9399
34.45148
33.58951
35.14462
35.74994
34.38813
33.52604
35.01156
35.55518
34.30103
33.45177
34.88389
35.42144
34.19598
33.37024
34.75316
35.25891
34.06865
33.26659
34.55162
35.08543
33.88867
33.1821
34.40255
35.27512
34.90987
33.77554
33.0743
34.27434
35.18178
34.79644
33.66407
32.95961
34.1548
35.08448
34.68391
33.56871
32.84979
34.05561
34.982
34.57206
33.48005
32.73215
33.95656
34.92092
34.4797
33.37269
32.62433
33.84556
34.82224
34.38523
33.24559
33.69023
34.65452
34.9614
34.26788
33.05224
33.48021
34.53722
34.88115
34.09093
32.88444
33.38596
34.36994
34.76176
33.92002
32.82076
33.11659
34.11067
34.80393
34.46809
33.65752
32.50824
32.71542
33.77416
34.61875
34.22459
33.30415
32.33205
33.38128
34.25653
34.60843
33.85353
32.89777
32.98829
33.87521
34.48341
34.73292
34.22763
33.46852
32.46878
32.4935
33.46177
34.17246
34.69045
34.43681
33.85059
33.03578
32.99546
33.74799
34.30337
34.69758
34.5157
34.08447
33.41553
32.50609
32.39684
33.22374
33.86169
34.30994
34.53933
34.66204
34.67424
34.66103
34.41295
34.12313
33.59572
32.88206
32.67381
33.36413
33.82936
34.15715
34.31301
34.3241
34.28082
33.97097
33.62198
33.04057
32.27505
32.73465
33.25532
33.56769
33.77514
33.81803
33.69001
33.42775
33.00461
32.35883
32.63748
32.9465
33.162
33.21955
33.03434
32.78915
32.29483
32.28806
32.47889
32.57268
32.4035
33.36521
34.7592
36.35597
35.55107
34.08463
33.33724
34.72181
36.16508
35.47343
34.06183
33.28819
34.65006
35.93331
35.3399
34.00968
33.22826
34.56152
35.70914
35.18922
33.93843
33.15773
34.46934
35.57861
35.07395
33.85231
33.06424
34.37522
35.42923
34.94742
33.74748
32.98535
34.27986
35.30579
34.84095
33.62611
34.17824
35.19252
34.73147
33.47693
34.06759
35.10937
34.63332
33.36135
33.9319
35.01473
34.51754
33.24585
33.75024
34.8998
34.40187
33.1161
33.63226
34.76173
34.25961
33.00791
33.50921
34.60454
34.99186
34.10604
32.87862
33.39255
34.50075
34.90611
33.98744
32.73077
33.27194
34.41755
34.85354
33.88539
32.60004
33.10804
34.244
34.70798
33.74033
32.80692
33.95036
34.75309
34.39518
33.42929
32.43384
33.66109
34.59946
34.16961
33.09406
33.28675
34.22487
34.61617
33.80023
32.67234
32.80015
33.82836
34.60723
34.23188
33.37996
32.36123
33.39407
34.25253
34.60619
33.93492
32.9567
32.95671
33.83861
34.5398
34.19617
33.44966
32.43507
32.36284
33.33596
34.08612
34.62743
34.34057
33.74642
32.93128
32.83401
33.60223
34.16402
34.5836
34.65922
34.37317
33.88611
33.22859
32.34542
32.22058
33.03897
33.64726
34.14173
34.3666
34.50198
34.56259
34.45322
34.23548
33.88753
33.37939
32.65003
32.3399
33.04613
33.5505
33.85812
34.02071
34.04868
33.96388
33.72863
33.33491
32.74265
32.31429
32.91243
33.23352
33.40499
33.44592
33.34163
33.06071
32.63683
32.2304
32.53611
32.72776
32.78967
32.6607
32.40512
33.34865
34.42923
36.0817
35.29868
33.74477
33.32538
34.39636
35.9389
35.2316
33.7238
33.27773
34.32357
35.73902
35.1051
33.67348
33.20411
34.20803
35.54516
34.96793
33.59489
33.10351
34.08826
35.38543
34.82892
33.46442
33.01434
33.97279
35.21526
34.63361
33.35567
32.93488
33.8665
35.08529
34.48106
33.2215
33.76688
34.9576
34.36458
33.07758
33.65691
34.84208
34.25559
32.96102
33.53667
34.68693
35.13122
34.14804
32.85367
33.41995
34.58123
35.03232
34.04222
32.75784
33.29904
34.48111
34.9454
33.9223
32.67434
33.1201
34.37598
34.86021
33.74702
32.9732
34.26832
34.77118
33.61981
32.8104
34.12405
34.65391
33.48422
32.74658
33.94621
34.86743
34.44739
33.38515
33.63714
34.66912
34.19093
33.02995
33.34346
34.35913
34.75204
33.88809
32.67719
32.92353
34.07625
34.5237
33.54025
32.5128
33.72214
34.55195
34.15286
33.19419
33.31294
34.18009
34.58968
33.78676
32.69602
32.76401
33.78238
34.56086
34.17874
33.33942
32.26898
33.32528
34.14176
34.50981
33.76395
32.8529
32.81949
33.69498
34.31488
34.60843
34.04631
33.27523
32.26107
33.13572
33.83664
34.36406
34.62447
34.14155
33.53133
32.6171
32.44699
33.2562
33.87011
34.31388
34.56905
34.66789
34.66625
34.63366
34.46365
34.12981
33.61169
32.92556
32.63592
33.3204
33.76612
34.03736
34.23879
34.25515
34.18568
33.92062
33.53335
33.00345
32.23292
32.63145
33.05621
33.43433
33.6169
33.6411
33.54878
33.29724
32.87273
32.25495
32.29858
32.66389
32.87271
32.88795
32.82102
32.55319
33.4109
34.27311
35.4067
36.2786
34.71599
33.81475
33.39077
34.24813
35.34058
36.10118
34.68116
33.79702
33.35003
34.19546
35.22338
35.87924
34.6115
33.75404
33.29275
34.12458
35.09248
35.6688
34.52395
33.69256
33.2224
34.04246
34.9654
35.51365
34.43002
33.61812
33.14185
33.94853
34.85898
35.38922
34.32515
33.53355
33.05422
33.84206
34.74171
35.28036
34.2068
33.44265
32.96207
33.70897
34.62006
35.14096
34.08872
33.34099
32.87066
33.56501
34.4776
35.00126
33.96306
33.2157
33.43939
34.33665
34.88446
33.83673
33.07414
33.32241
34.2142
34.78206
33.71104
32.95306
33.20796
34.09429
34.67097
33.58044
32.83468
33.07764
33.9838
34.98673
34.53619
33.4102
32.71882
32.92965
33.87511
34.88675
34.4326
33.28432
32.61632
32.75871
33.74394
34.81975
34.3369
33.13774
32.70552
33.56757
34.6308
34.14938
33.02009
33.30691
34.34753
34.79537
33.84473
32.67425
32.89548
34.11039
34.59936
33.52753
32.48952
33.77775
34.68499
34.24636
33.20592
33.41963
34.42215
33.95388
32.753
32.93468
34.04138
34.48617
33.53362
32.45678
33.66265
34.51021
34.09484
33.13704
33.18788
34.09019
34.4881
33.669
32.56665
32.58667
33.63953
34.3427
34.63949
34.01698
33.17229
33.12366
33.93525
34.56815
34.23743
33.54527
32.54594
32.40334
33.34036
34.04066
34.59231
34.3087
33.71475
32.95157
32.73898
33.48358
34.07277
34.46136
34.66797
34.59632
34.28942
33.78608
33.14148
32.23403
32.8335
33.45739
33.88284
34.20742
34.32179
34.32372
34.32141
34.10408
33.72262
33.14779
32.39564
32.70264
33.16622
33.53632
33.67772
33.6861
33.63896
33.40583
33.00951
32.35088
32.45709
32.80109
32.92894
32.94885
32.88694
32.60547
32.24942
33.49742
34.32383
35.23156
36.28972
35.78255
34.77017
33.85125
33.14541
33.46615
34.30074
35.17632
36.11441
35.68303
34.73599
33.83814
33.14535
33.41063
34.2502
35.07819
35.8956
35.52794
34.66848
33.80124
33.34224
34.1803
34.96672
35.68741
35.36624
34.58319
33.74286
33.26486
34.09788
34.85853
35.57028
35.25423
34.49017
33.667
33.18047
34.00665
34.7484
35.44088
35.12891
34.39148
33.58099
33.09136
33.90804
34.63453
35.33001
35.01637
34.28713
33.48815
32.99876
33.80034
34.51183
35.20138
34.89858
34.17306
33.39029
32.90429
33.67541
34.38462
35.09967
34.79432
34.04305
33.28857
32.80919
33.50242
34.26474
34.97563
34.667
33.90812
33.16949
33.38971
34.13954
34.85177
34.4689
33.78809
33.01737
33.27494
34.02464
34.77171
34.34323
33.67221
32.89909
33.1612
33.91114
34.68022
34.22984
33.554
32.78107
33.04053
33.78289
34.55306
34.98817
34.11612
33.40657
32.66458
32.86935
33.66178
34.45528
34.90903
34.00527
33.2435
32.56342
32.80788
33.51338
34.28138
34.75725
33.83757
33.16413
33.20073
34.01286
34.50176
33.54629
32.82131
32.78407
33.7158
34.69728
34.21735
33.17433
33.38423
34.45221
33.96514
32.69082
32.92298
34.0665
34.57238
33.56785
32.46636
33.73936
34.65141
34.19563
33.19947
33.34146
34.29132
34.65764
33.87875
32.65494
32.76244
33.91255
34.65219
34.28719
33.38873
33.39532
34.26916
34.6069
33.90499
32.81715
32.80881
33.87265
34.5738
34.20532
33.37096
33.29347
34.06378
34.62344
34.36593
33.69039
32.73385
32.61171
33.57704
34.17664
34.63029
34.43445
33.92521
33.14036
32.91631
33.63151
34.15563
34.54074
34.65757
34.35538
33.94312
33.29365
32.3721
32.93935
33.52077
33.95681
34.25899
34.36315
34.35578
34.31596
34.15241
33.77185
33.2505
32.48376
32.7732
33.3294
33.60402
33.74584
33.78072
33.68299
33.46059
33.05049
32.40955
32.51401
32.83219
32.96946
32.99598
32.9164
32.62902
32.24389
33.56728
34.42873
35.30039
36.32492
35.81292
34.84632
34.00531
33.16663
33.55181
34.38607
35.23885
36.14333
35.71265
34.8021
33.9687
33.15522
33.47596
34.31469
35.13197
35.92043
35.55403
34.72314
33.86602
33.14696
33.39593
34.23092
35.0124
35.7054
35.38754
34.6284
33.79601
33.29692
34.13707
34.89762
35.58688
35.27147
34.52753
33.70487
33.20072
34.03956
34.78483
35.45329
35.14448
34.42473
33.60968
33.10771
33.93991
34.67189
35.31932
35.0259
34.32081
33.51338
33.01462
33.83687
34.55537
35.14734
35.34449
34.89064
34.21396
33.41527
32.92094
33.72752
34.43179
35.00532
35.26469
34.74301
34.09965
33.31528
32.82793
33.60128
34.29453
34.90464
35.17892
34.60751
33.96628
33.21261
32.72601
33.43114
34.17648
34.81679
35.07615
34.49935
33.83369
33.07627
33.31964
34.06901
34.72092
34.99949
34.39488
33.71831
32.94295
33.19721
33.95791
34.61645
34.89304
34.28489
33.59832
32.81221
33.07084
33.83238
34.46738
34.79665
34.15805
33.463
32.68503
32.90793
33.69131
34.35176
34.95101
34.70959
34.0342
33.26855
32.56165
32.8373
33.55191
34.2029
34.80718
34.54131
33.89123
33.19646
32.53221
33.23698
33.92807
34.60019
34.28646
33.60471
32.86811
32.86146
33.59229
34.31976
34.76584
33.90149
33.21781
32.48207
32.46237
33.19369
34.04322
34.51393
33.55217
32.84099
32.77846
33.68628
34.68103
34.20689
33.15107
32.42688
33.32761
34.34593
33.89298
32.63984
32.80339
33.97891
34.44855
33.45095
33.51822
34.52195
34.02033
32.90853
33.07745
34.04035
34.48619
33.62905
32.35892
32.41664
33.62481
34.43878
34.0287
33.13774
33.08882
33.95854
34.62781
34.30456
33.58179
32.41291
32.32117
33.39995
34.18241
34.54758
33.86784
32.97775
32.69215
33.63702
34.23333
34.55375
33.95914
33.25445
32.97005
33.66388
34.17554
34.61507
34.37694
33.96265
33.33673
32.44675
32.96205
33.54039
34.0613
34.28676
34.40666
34.47889
34.3323
34.18485
33.79855
33.27358
32.50295
32.77507
33.31862
33.5999
33.74046
33.76443
33.68124
33.45673
33.05094
32.41043
32.3543
32.76259
32.93069
32.94521
32.88338
32.58588
33.49754
34.42887
35.34872
36.3516
35.85314
34.88126
33.95008
33.46633
34.38622
35.28316
36.169
35.74701
34.83331
33.88326
33.41101
34.31488
35.16992
35.95579
35.59684
34.74565
33.83822
33.34284
34.23146
35.04385
35.74591
35.4309
34.64589
33.76873
33.26557
34.13812
34.92243
35.60606
35.2996
34.54043
33.68869
33.18127
34.04058
34.8062
35.47131
35.16772
34.43542
33.59948
33.09207
33.94072
34.69471
35.34264
35.04972
34.33186
33.50537
32.99954
33.83773
34.58315
35.21667
34.92924
34.22714
33.40732
32.90502
33.7286
34.46817
35.0874
35.27256
34.8113
34.11737
33.30651
32.80982
33.60228
34.33784
34.93259
35.17924
34.66399
33.98992
33.20063
33.43195
34.20325
34.83618
35.10691
34.53343
33.84867
33.05086
33.32035
34.09232
34.75345
35.03068
34.42743
33.73277
32.92481
33.19767
33.98001
34.65099
34.93268
34.31726
33.61068
32.80015
33.07116
33.85595
34.5404
35.00687
34.78766
34.19971
33.47417
32.67762
32.90805
33.71212
34.38505
34.95124
34.69298
34.06367
33.2778
32.56022
32.83761
33.58081
34.22412
34.81665
34.5293
33.91926
33.20705
32.53267
33.24112
33.93965
34.50455
34.79597
34.23477
33.61851
32.88832
32.87967
33.6044
34.21055
34.79487
34.51972
33.92052
33.23133
32.48941
32.47252
33.21778
33.90145
34.55963
34.24806
33.58709
32.86841
32.83097
33.53463
34.25092
34.7343
33.84365
33.18162
32.44308
32.40307
33.13455
33.96738
34.45006
33.48722
32.75857
32.63108
33.55073
34.52756
34.05493
33.0238
33.10312
34.11001
34.59259
33.62877
32.43633
32.49095
33.7243
34.60511
34.1772
33.20246
33.28325
34.16074
34.59753
33.80215
32.53823
32.57565
33.7119
34.55121
34.13496
33.26776
33.1967
34.01717
34.44244
33.65125
32.52977
32.3908
33.48832
34.20175
34.56228
33.90374
33.06703
32.82967
33.66068
34.23311
34.54012
33.97355
33.29909
32.26015
32.98129
33.67062
34.16855
34.61729
34.38511
33.97374
33.34309
32.46757
32.95346
33.52631
33.93528
34.2593
34.34298
34.34461
34.31391
34.1429
33.77353
33.26151
32.49816
32.72279
33.16584
33.52251
33.68429
33.6945
33.63057
33.41004
33.02378
32.3732
32.31252
32.66163
32.89249
32.91439
32.79267
32.55276
33.41092
34.32388
35.30049
36.35166
35.83587
34.80372
33.83355
33.39079
34.30078
35.23891
36.16913
35.72965
34.7662
33.81805
33.35005
34.25022
35.13194
35.95611
35.5723
34.69532
33.77778
33.29277
34.18029
35.01228
35.74638
35.41038
34.60648
33.71813
33.22243
34.09783
34.89759
35.60659
35.2882
34.51015
33.64444
33.14186
34.00656
34.78512
35.47187
35.15874
34.40939
33.56078
33.05429
33.90804
34.67239
35.3432
35.04061
34.30481
33.46951
32.96213
33.80044
34.55576
35.21715
34.91513
34.19374
33.37244
32.87072
33.67555
34.43196
35.08781
34.80017
34.07052
33.2673
33.5026
34.29456
34.93305
35.17433
34.63516
33.93134
33.12152
33.38989
34.17657
34.83666
35.10394
34.51768
33.81146
32.99353
33.27512
34.06917
34.75388
35.02919
34.41237
33.69744
32.87186
33.1614
33.95821
34.65152
34.93239
34.30301
33.58011
32.75899
33.04076
33.83277
34.54149
35.01041
34.79717
34.18363
33.44636
32.64551
32.86966
33.69181
34.38761
34.94793
34.70034
34.05059
33.25518
32.80819
33.55228
34.22786
34.80414
34.53526
33.90571
33.18433
33.23736
33.93964
34.52375
34.79828
34.24224
33.61316
32.8493
32.86172
33.60426
34.23024
34.76229
34.51227
33.92787
33.22541
32.48188
32.46261
33.21846
33.93195
34.48524
34.77153
34.25728
33.59943
32.85912
32.8314
33.55843
34.14994
34.73884
34.45698
33.86755
33.19223
32.43535
32.4033
33.14387
33.81515
34.46786
34.15767
33.49806
32.77885
32.69595
33.43189
34.12311
34.64426
33.74074
33.08197
32.90952
33.73084
34.63702
34.1903
33.24498
32.49146
33.31892
34.30345
33.84902
32.60062
32.64527
33.85705
34.31027
33.36529
33.37238
34.30038
33.85251
32.68518
32.68997
33.81118
34.58513
34.16855
33.34442
33.24237
34.08359
34.48901
33.68444
32.62525
32.4161
33.56622
34.21752
34.54308
33.92893
33.09264
32.75656
33.65813
34.25068
34.56313
33.97236
33.29033
32.95193
33.65918
34.16131
34.52127
34.64073
34.35256
33.95984
33.32738
32.40942
32.89669
33.48792
33.8815
34.20355
34.34052
34.32153
34.29382
34.10011
33.71491
33.19873
32.44734
32.63466
33.09017
33.45251
33.63971
33.66268
33.54541
33.31361
32.87931
32.32728
32.53481
32.77544
32.79892
32.67695
32.38389
33.34864
34.2731
35.23156
36.32495
35.78976
34.73855
33.7921
33.32537
34.24812
35.17632
36.14336
35.69059
34.70417
33.77265
33.27772
34.19544
35.07818
35.92048
35.53571
34.63668
33.72609
33.20411
34.12452
34.96671
35.70547
35.37337
34.55215
33.65968
33.10352
34.04237
34.85856
35.58699
35.25928
34.46065
33.57901
33.01431
33.94841
34.74841
35.45344
35.12952
34.36247
33.4841
32.93484
33.84197
34.6344
35.31949
34.99644
34.25718
33.37428
33.70892
34.51171
35.14746
34.85511
34.13938
33.26801
33.56499
34.38456
35.00541
35.25747
34.70731
34.01127
33.1234
33.43941
34.26475
34.90471
35.17854
34.58687
33.88697
33.00321
33.32245
34.1396
34.81689
35.10071
34.48082
33.7605
32.88476
33.20803
34.02474
34.72107
35.00931
34.37599
33.6405
32.75683
33.07773
33.91126
34.61668
34.88359
34.26827
33.51403
32.64734
32.92975
33.78303
34.46769
35.00743
34.75783
34.14867
33.33804
32.75881
33.66191
34.35206
34.95262
34.68083
34.03647
33.20304
32.7056
33.51347
34.20283
34.81887
34.5223
33.87759
33.11432
33.20076
33.92791
34.5047
34.78035
34.22372
33.57958
32.76873
32.78413
33.59226
34.21046
34.76243
34.48752
33.92354
33.20703
33.19371
33.90135
34.48551
34.78379
34.19236
33.57615
32.79191
32.77849
33.5345
34.15032
34.70705
34.42828
33.86296
33.17044
33.13459
33.8151
34.3727
34.66135
34.09586
33.49632
32.72826
32.63126
33.43247
34.01251
34.63894
34.32003
33.74601
33.07556
32.90939
33.58397
34.22845
34.68598
33.87113
33.25436
32.4697
33.11717
33.90305
34.36566
33.45845
32.68875
32.45412
33.4526
34.38701
33.91678
32.87371
32.8029
33.95391
34.40068
33.45405
33.44304
34.34489
33.93208
32.77222
32.73559
33.83419
34.57339
34.19572
33.40304
33.21962
34.0673
34.51647
33.68379
32.58409
32.34039
33.49916
34.21192
34.55075
33.91198
33.08058
32.66334
33.62118
34.22764
34.63563
34.50383
33.95961
33.21284
32.80647
33.60655
34.09993
34.45561
34.6683
34.59087
34.27393
33.8514
33.24722
32.25608
32.69629
33.33456
33.79983
34.04891
34.27159
34.27587
34.21811
33.93868
33.60003
33.08603
32.2613
32.36221
32.93674
33.23497
33.4784
33.48802
33.41761
33.12952
32.68195
32.3435
32.50744
32.55467
32.45014
33.3652
34.42922
35.4067
36.28972
35.86719
34.89543
33.91558
33.33723
34.39634
35.34057
36.1144
35.75791
34.8517
33.89079
33.28817
34.32354
35.22338
35.89559
35.59446
34.76573
33.8359
33.22824
34.20797
35.09248
35.68741
35.42844
34.65375
33.75813
33.15771
34.08823
34.96537
35.57029
35.31441
34.54026
33.62773
33.06422
33.97276
34.85895
35.44087
35.18691
34.42933
33.51632
32.98534
33.86647
34.74169
35.33002
35.0699
34.31504
33.38518
33.76687
34.62004
35.20139
34.93824
34.20677
33.2753
33.65691
34.4776
35.09969
34.79483
34.09018
33.15772
33.53668
34.33667
34.97566
35.17316
34.68074
33.96512
33.03849
33.41997
34.21423
34.85182
35.06367
34.5761
33.8379
32.9206
33.29907
34.09434
34.77178
35.0018
34.47043
33.68678
32.821
33.12014
33.98386
34.68031
34.92709
34.37133
33.5805
32.72537
32.97325
33.87518
34.55315
34.83172
34.27146
33.45207
32.81046
33.74402
34.45537
34.95114
34.74253
34.11398
33.3105
32.74666
33.56766
34.28146
34.80727
34.58187
33.94258
33.18437
33.30704
34.01296
34.60021
34.83404
34.31897
33.6783
32.83951
32.89571
33.71597
34.31982
34.79489
34.58601
34.06264
33.3651
32.48992
33.38452
34.04328
34.55961
34.78027
34.30162
33.71335
32.92283
32.92327
33.68619
34.25078
34.73882
34.51733
34.01128
33.36851
32.49654
32.46617
33.32737
33.9672
34.46781
34.69607
34.20456
33.6458
32.88319
32.80321
33.55061
34.12302
34.63888
34.39518
33.9032
33.25609
33.10309
33.73081
34.2284
34.50691
34.00187
33.44527
32.64194
32.49097
33.3189
33.90302
34.45566
34.12662
33.57074
32.89767
32.6452
33.45263
34.06826
34.54862
33.79179
33.09841
32.80581
33.70358
34.54911
34.08135
33.24949
33.18847
34.07643
34.54201
33.68702
32.46218
33.65568
34.47847
34.02646
33.0687
32.96238
33.91492
34.37334
33.6118
33.38136
34.15471
34.50589
33.82532
32.7871
32.4988
33.64625
34.26121
34.55883
33.92743
33.26131
32.73034
33.67549
34.25914
34.5162
33.95653
33.34045
32.84459
33.56408
34.07166
34.42882
34.65051
34.54351
34.29829
33.86289
33.33242
32.3314
32.6119
33.40884
33.83947
34.1001
34.19351
34.20407
34.19316
33.97753
33.58258
33.07236
32.38733
32.9041
33.279
33.39977
33.4595
33.38547
33.14446
32.70703
32.3944
32.62416
32.59361
32.5526
33.65794
34.7592
36.08171
35.40456
34.15145
33.18936
33.63546
34.72181
35.93891
35.33327
34.13132
33.16461
33.58951
34.65006
35.73903
35.20947
34.08132
33.11927
33.52604
34.56152
35.54515
35.08041
34.01261
33.05914
33.45177
34.46933
35.38542
35.64132
34.97077
33.9346
32.99062
33.37024
34.37522
35.21525
35.50321
34.84827
33.85264
32.92346
33.2666
34.27986
35.08528
35.38499
34.73122
33.7722
32.87087
33.1821
34.17825
34.9576
35.25697
34.6115
33.68705
33.07431
34.0676
34.84209
35.14886
34.49475
33.58712
32.95962
33.93192
34.68695
35.03146
34.34548
33.47549
32.84981
33.75026
34.58126
34.95708
34.19176
33.34334
32.73218
33.63229
34.48115
34.85174
34.07689
33.18123
32.62436
33.50925
34.37603
34.98679
34.71306
33.96853
33.04749
33.39259
34.26838
34.88681
34.60001
33.85304
32.90164
33.272
34.12412
34.81983
34.4711
33.70735
32.75812
33.10811
33.94632
34.63091
34.90425
34.29986
33.5536
32.69287
32.80704
33.6373
34.34774
34.69378
34.06133
33.27588
32.43402
33.34373
34.11083
34.69774
34.43011
33.73812
32.86686
32.92394
33.77873
34.45444
34.72191
34.10451
33.41423
32.48468
32.51309
33.42028
34.08598
34.67796
34.41279
33.7703
32.95035
32.93402
33.73859
34.34392
34.63189
34.0413
33.39711
32.49941
32.45646
33.34111
33.97853
34.52735
34.22876
33.67625
32.88302
32.76238
33.51822
34.11013
34.63709
34.41524
33.88368
33.21586
32.35552
33.07761
33.72472
34.30368
34.56113
34.00439
33.41295
32.62201
32.41665
33.28313
33.85664
34.3866
34.63702
34.08454
33.56113
32.83787
32.57532
33.37193
33.95352
34.54891
34.22791
33.66934
32.97569
32.68972
33.44285
34.07629
34.56614
33.7915
33.13965
32.73547
33.6556
34.51785
34.04035
33.17496
32.34408
32.96234
33.98502
34.46928
33.61462
33.54821
34.32586
33.89542
32.80028
32.59832
33.70185
34.54634
34.11856
33.29669
33.08014
33.91098
34.57602
34.28935
33.59933
32.37165
33.23961
33.94564
34.57324
34.31509
33.63976
32.66293
32.19239
33.29721
33.91792
34.41671
34.61328
34.15966
33.66122
32.74633
32.26858
33.11515
33.68682
34.08204
34.41003
34.49051
34.50835
34.47436
34.23403
33.91598
33.41634
32.75248
32.84803
33.33102
33.68317
33.81741
33.84289
33.78273
33.54725
33.13873
32.44325
32.31251
32.85445
33.19128
33.39441
33.43901
33.34494
33.06207
32.61254
32.34604
32.73478
32.93788
32.9676
32.84498
32.5542
32.25286
32.48917
32.48142
32.41061
34.06435
35.32639
36.35597
35.86709
34.69237
33.49964
34.0411
35.26171
36.16508
35.75522
34.65698
33.46131
33.98669
35.14462
35.93331
35.592
34.58681
33.39391
33.90965
35.01156
35.70914
35.40539
34.4933
33.3167
33.81783
34.88389
35.57861
35.26985
34.38563
33.23119
33.71634
34.75317
35.42924
35.08168
34.26939
33.14237
33.60225
34.55162
35.30579
34.93687
34.12788
33.04969
33.47468
34.40256
35.19252
34.81861
33.97662
32.94938
33.34435
34.27435
35.10938
34.71439
33.82358
32.84258
33.20925
34.15481
35.01475
34.60848
33.64833
32.74189
33.04793
34.05562
34.89982
34.51555
33.54445
32.63193
32.92331
33.95658
34.76175
35.01836
34.40574
33.44529
32.80847
33.84558
34.60457
34.91902
34.29346
33.34105
32.68869
33.69026
34.50078
34.83926
34.11657
33.2115
32.55737
33.48025
34.41759
34.78955
33.98135
33.05201
32.51486
33.386
34.24405
34.8675
34.60698
33.84571
32.88032
33.11665
33.95043
34.66922
34.31268
33.51918
32.63849
32.71548
33.66119
34.35927
34.69259
34.0602
33.22521
32.33212
33.28684
34.07639
34.68523
34.42523
33.69678
32.76046
32.8002
33.7222
34.42226
34.68412
34.05955
33.32146
32.36391
32.36125
33.31294
34.04136
34.65154
34.38325
33.70576
32.79913
32.76401
33.66265
34.29136
34.62812
33.99887
33.27471
32.32868
32.269
33.18789
33.91259
34.52202