
21909
(
33.01576
32.83643
32.77102
32.8522
32.84042
32.84626
32.77283
32.77176
32.8351
32.77487
32.72906
32.75376
32.58953
32.66603
32.66371
32.70628
32.97166
32.8696
32.84182
33.00588
32.97166
32.86959
32.7984
32.98704
32.88713
32.88471
32.84002
32.85096
32.88713
32.88469
32.906
32.89553
32.81026
32.83899
32.84247
32.97095
32.96796
32.87265
32.85935
32.9305
32.87521
32.85997
32.90705
32.87266
32.85937
32.75408
32.79493
32.83029
32.79291
32.80191
32.74755
32.7541
32.79494
32.68616
32.71914
32.75635
32.71969
32.70719
32.67303
32.68618
32.71916
32.6229
32.65371
32.68246
32.6451
32.64191
32.61475
32.62292
32.65373
32.5837
32.59697
32.61081
32.55826
32.59652
32.6032
32.58372
32.597
32.51067
32.55876
32.49414
32.45613
32.58687
32.5739
32.5107
32.55879
32.55341
32.49863
32.48572
32.54609
32.5534
32.49861
32.52198
32.48121
32.46432
32.47901
32.46317
32.45564
32.48587
32.47899
32.46315
32.4514
32.48423
32.4322
32.41504
32.53073
32.43943
32.39735
32.53228
32.53075
32.43948
32.4228
32.43219
32.41502
32.40954
32.36757
32.31931
32.44827
32.50239
32.49376
32.4629
32.44828
32.5024
32.36756
32.31928
32.25981
32.30121
32.38191
32.39346
32.40043
32.38326
32.49624
32.47336
32.41349
32.48205
32.49623
32.47335
32.38192
32.39347
32.28425
32.2255
32.26845
32.33059
32.4243
32.35019
32.37692
32.3522
32.31602
32.35473
32.37691
32.35222
32.42429
32.35018
32.26846
32.3306
32.3453
32.32283
32.38151
32.38571
32.37985
32.40156
32.40405
32.36397
32.35274
32.40799
32.40405
32.36397
32.37984
32.40155
32.38152
32.38571
32.3453
32.32285
32.29634
32.28941
32.31379
32.30157
32.27418
32.36103
32.32293
32.38504
32.2978
32.27419
32.36104
32.32294
32.3138
32.31437
32.30213
32.29009
33.07602
32.84674
33.01008
33.23425
33.00813
32.84026
32.83169
33.00446
32.82424
32.81253
32.92889
32.97658
32.79309
32.76775
32.86323
32.89622
32.73876
32.70761
32.79255
32.82853
32.75545
32.67517
32.64215
32.71689
32.60934
32.57852
32.63416
32.67648
32.55489
32.60266
32.55103
32.59115
32.61512
32.59207
32.60574
32.6431
32.61511
32.59205
32.48748
32.51748
32.56427
32.5442
32.52886
32.56465
32.56426
32.54418
32.44311
32.46035
32.41606
32.47847
32.51972
32.51402
32.55766
32.34516
32.37656
32.51092
32.44028
32.38859
32.34761
32.40226
32.3843
32.38205
32.41847
32.40231
32.38434
32.36052
32.38107
32.31248
32.28414
32.37776
32.34341
32.36057
32.38112
32.2982
32.2541
32.39155
32.34128
32.33547
32.33713
32.37481
32.37678
32.33795
32.33714
32.37482
32.32206
32.36984
32.28829
32.32303
32.29051
32.32056
32.27857
32.29708
32.27726
32.2883
32.32304
32.2203
32.19694
32.21856
32.19323
32.19695
32.24017
32.27182
32.23371
32.20617
32.22031
32.14068
32.20401
32.24565
32.18635
32.16539
32.23835
32.21022
32.28452
32.25308
32.25705
32.27219
32.28453
32.25309
32.23838
32.21024
32.1407
32.20404
32.25347
32.28953
32.26249
32.23524
32.27929
32.30344
32.28954
32.26249
32.23524
32.25348
32.26347
32.25543
32.20677
32.87446
33.07385
33.08643
32.88169
32.90942
32.88562
32.88993
32.91351
33.0563
33.00625
32.98513
33.0164
33.02439
33.08664
33.0563
33.00626
33.05189
32.99281
33.05496
33.0122
33.06423
33.01242
32.94526
32.89887
32.96515
32.85327
32.80792
32.86955
32.91706
32.76261
32.71769
32.77886
32.82335
32.67336
32.62943
32.69167
32.73549
32.64632
32.58569
32.54236
32.59979
32.50032
32.46199
32.50957
32.55353
32.43343
32.42613
32.43985
32.47039
32.50066
32.54414
32.57354
32.51875
32.50067
32.54413
32.44112
32.4263
32.45934
32.52963
32.54614
32.50959
32.54309
32.34409
32.40054
32.48742
32.42707
32.29163
32.29761
32.36871
32.32741
32.45274
32.43942
32.46206
32.41283
32.3638
32.42022
32.43734
32.46206
32.41282
32.32644
32.32243
32.31249
32.41219
32.26104
32.29501
32.32129
32.28982
32.27216
32.24678
32.19438
32.25508
32.28228
32.27064
32.22319
32.2273
32.19678
32.21371
32.25454
32.24622
32.20563
32.23608
32.2232
32.22731
32.20663
32.22905
32.22773
32.25965
32.29955
32.24815
32.2038
32.21407
32.20664
32.22906
32.25249
32.1902
32.22117
32.24026
32.25747
32.24711
32.21016
32.25071
32.25755
32.2817
32.27874
32.25071
32.25755
32.24712
32.21016
32.25678
32.25747
32.2525
33.3553
33.13378
32.98852
33.09613
33.09572
32.99605
33.02119
33.10068
33.0155
33.06845
33.10997
33.11306
33.0752
33.07499
33.05848
33.04994
33.08309
33.02279
32.98134
32.97366
33.01299
32.93321
32.9377
32.89383
32.89261
32.85076
32.80886
32.8117
32.85217
32.76744
32.72469
32.72685
32.77038
32.67945
32.63256
32.63499
32.68101
32.59199
32.58601
32.54183
32.5506
32.50217
32.47014
32.49246
32.51307
32.44774
32.44141
32.51995
32.51505
32.57469
32.51966
32.5341
32.50255
32.56914
32.52886
32.47994
32.47177
32.52806
32.36798
32.41362
32.42794
32.38739
32.45547
32.37675
32.40331
32.43699
32.489
32.37019
32.4046
32.41409
32.46629
32.36019
32.37875
32.38274
32.38896
32.30104
32.36021
32.37878
32.33309
32.31532
32.261
32.26613
32.3239
32.31798
32.30774
32.20591
32.29388
32.26802
32.28979
32.21813
32.27291
32.2595
32.27553
32.23454
32.21961
32.27349
32.24766
32.27292
32.2595
32.18202
32.15522
32.18354
32.2876
32.24115
32.25176
32.30102
32.26566
32.24337
32.19686
32.26434
32.24519
32.26567
32.24338
32.1969
32.25178
32.16658
32.13727
32.18231
32.26611
32.20958
32.23919
32.21444
32.24219
32.2372
32.29739
32.32319
32.21971
32.24415
32.33782
32.32319
32.21971
32.23721
32.2974
32.24222
32.26613
33.42804
33.16674
33.06769
33.30904
33.15551
33.13574
33.0415
33.05836
33.11059
33.08187
32.99151
33.01879
33.04975
33.01427
32.9271
32.96062
32.97629
32.9372
32.85709
32.89207
32.89829
32.8602
32.79825
32.82448
32.82329
32.78392
32.81124
32.78802
32.73894
32.6919
32.75756
32.79646
32.64639
32.60733
32.67998
32.7158
32.5859
32.60296
32.6337
32.69263
32.66865
32.59243
32.65712
32.64252
32.58431
32.57823
32.54807
32.60671
32.63228
32.60645
32.55033
32.57338
32.56796
32.52973
32.46786
32.51165
32.48929
32.44677
32.38665
32.42262
32.41879
32.44522
32.50157
32.41204
32.47085
32.50165
32.49429
32.5099
32.48892
32.42853
32.41465
32.36403
32.42564
32.4197
32.3444
32.35375
32.3425
32.34683
32.35866
32.37856
32.34857
32.23317
32.24876
32.37989
32.2168
32.24633
32.23513
32.28684
32.21745
32.29563
32.24009
32.33176
32.29409
32.23094
32.29808
32.24845
32.25566
32.29252
32.22459
32.20095
32.27079
32.27869
32.24845
32.25566
32.26586
32.28964
32.26096
32.26259
32.27316
32.27064
32.28117
32.28462
32.26587
32.28965
32.2388
32.24904
32.25602
32.24049
32.29247
32.26848
32.29099
32.25413
32.29047
32.26851
32.29104
32.31857
32.29253
32.23882
32.31273
32.27328
32.2994
32.25817
32.2551
32.33168
32.2778
32.25506
32.31271
33.26176
33.43863
33.17653
33.09799
33.09186
33.16986
33.15524
33.07767
33.05703
33.13414
33.10833
33.0315
33.00248
33.07929
33.04816
32.9712
32.93892
33.01586
32.98313
32.90717
32.87829
32.95108
32.9224
32.85707
32.85993
32.90696
32.89965
32.89288
32.8299
32.86135
32.87227
32.8301
32.74922
32.78918
32.78484
32.73882
32.70901
32.72287
32.69528
32.65913
32.64657
32.68365
32.64136
32.66272
32.563
32.60476
32.65458
32.62318
32.50463
32.52664
32.5909
32.57839
32.54785
32.52535
32.5167
32.57144
32.54777
32.50244
32.52249
32.53198
32.52963
32.52919
32.51039
32.52978
32.43194
32.46954
32.49513
32.49247
32.47458
32.44286
32.42582
32.43285
32.47599
32.39577
32.34701
32.3334
32.35493
32.35956
32.35187
32.31073
32.37251
32.37095
32.36135
32.39074
32.23397
32.24843
32.27113
32.35357
32.2959
32.25087
32.23205
32.2172
32.23793
32.22909
32.29603
32.22657
32.21013
32.22842
32.31819
32.33082
32.23075
32.173
32.21137
32.22197
32.28501
32.1924
32.20815
32.29127
32.27727
32.27436
32.20314
32.26834
32.27517
32.27869
32.32173
32.27632
32.19056
32.26841
32.27528
32.25893
32.26012
32.26826
32.30867
32.32582
32.27414
32.28279
32.25908
32.33515
32.33879
32.31652
32.30646
32.33346
32.32357
32.31645
32.30641
32.25911
32.33533
32.28318
32.26843
33.17913
33.43687
33.33218
33.10362
33.1525
33.16968
33.09459
33.07833
33.10414
33.12998
33.0573
33.03461
33.05065
33.07695
33.01585
33.01061
32.98901
33.02275
33.04336
33.0411
32.91944
32.95236
33.01243
32.98304
32.99565
32.94211
32.91516
32.90248
32.97579
32.9584
32.90204
32.86767
32.92824
32.88743
32.82671
32.78527
32.8444
32.80231
32.7468
32.71514
32.76325
32.73793
32.70786
32.73122
32.72157
32.70897
32.68217
32.66475
32.69357
32.64565
32.64784
32.6215
32.64973
32.59834
32.55485
32.59808
32.63334
32.50918
32.49244
32.55738
32.56389
32.53335
32.56328
32.59379
32.5523
32.52047
32.52106
32.54213
32.55719
32.51396
32.39789
32.43425
32.47876
32.4437
32.42727
32.39176
32.40087
32.42393
32.44038
32.41168
32.37468
32.4148
32.41544
32.37321
32.36231
32.35301
32.36049
32.36353
32.3761
32.3366
32.27144
32.33173
32.32442
32.33935
32.31545
32.20032
32.22075
32.29632
32.29758
32.32806
32.30747
32.30951
32.26379
32.28365
32.26892
32.14869
32.20361
32.21932
32.15723
32.17434
32.20279
32.18015
32.18896
32.22841
32.25763
32.24279
32.17285
32.17164
32.19258
32.2694
32.25217
32.24711
32.25314
32.24467
32.19095
32.18728
32.24449
32.28519
32.34247
32.3526
32.33931
32.35306
32.35561
32.28574
32.3403
32.35382
32.28569
32.34308
32.24483
32.25343
33.13403
33.32842
33.38491
33.19837
33.11042
33.1259
33.19055
33.17545
33.15429
33.12803
33.06521
33.08945
33.02498
33.04157
33.09734
33.06296
33.04893
33.05091
33.02661
32.99015
33.07738
33.09551
33.04892
33.0509
32.97765
33.01403
32.95333
32.91814
33.06765
33.0331
32.97764
33.01403
32.9409
32.95337
32.89178
32.92041
32.94125
33.01105
32.99607
32.94091
32.95336
32.96119
32.91836
32.9407
32.96661
32.9041
32.87235
32.82487
32.85129
32.77691
32.72951
32.75685
32.80369
32.68523
32.64966
32.6714
32.71192
32.63003
32.66729
32.68625
32.65679
32.63945
32.69884
32.72429
32.71739
32.72168
32.65206
32.68485
32.67502
32.6206
32.58748
32.61281
32.56483
32.52588
32.61885
32.60165
32.56302
32.65361
32.64523
32.63695
32.59141
32.568
32.58481
32.52792
32.46101
32.49864
32.532
32.44052
32.46342
32.47966
32.46418
32.43682
32.46363
32.46209
32.47239
32.46298
32.45986
32.43563
32.41279
32.40274
32.41981
32.35143
32.38544
32.3658
32.32759
32.26989
32.2883
32.3061
32.27751
32.26371
32.2768
32.25133
32.24548
32.25665
32.30557
32.34106
32.28572
32.20393
32.28195
32.31133
32.26
32.2423
32.26141
32.33104
32.3386
32.25859
32.21715
32.13439
32.16598
32.17233
32.26556
32.25732
32.27895
32.3333
32.18061
32.15194
32.26564
32.25741
32.18566
32.19627
32.27641
32.23452
32.32352
32.26322
32.2967
32.32284
32.26112
32.33286
32.297
32.27674
33.22223
33.40799
33.42099
33.23153
33.20193
33.2155
33.22608
33.21456
33.15854
33.18265
33.19805
33.17677
33.09904
33.13041
33.15072
33.1204
33.02861
33.065
33.08659
33.05
32.95098
32.99033
33.01128
32.97112
32.87502
32.91187
32.93025
32.88935
32.82084
32.84337
32.84919
32.81135
32.85942
32.84559
32.77892
32.75896
32.88587
32.90946
32.85945
32.8456
32.88001
32.83152
32.85938
32.83424
32.85928
32.783
32.73349
32.77158
32.81904
32.72257
32.68489
32.6402
32.67459
32.60737
32.63311
32.58909
32.62935
32.64843
32.63875
32.63834
32.67886
32.64851
32.63883
32.62241
32.59103
32.56059
32.64085
32.59803
32.53827
32.57828
32.62381
32.56732
32.60004
32.63721
32.66007
32.62387
32.5301
32.52997
32.63475
32.54867
32.55222
32.5331
32.52591
32.51339
32.46204
32.48545
32.4733
32.47794
32.47955
32.48084
32.48568
32.4637
32.48697
32.48105
32.45454
32.46991
32.46291
32.45343
32.40926
32.39805
32.37888
32.43138
32.42084
32.3349
32.3055
32.3072
32.37165
32.35514
32.29581
32.33684
32.29294
32.26654
32.31167
32.32621
32.27264
32.28739
32.25378
32.27091
32.21502
32.19729
32.29164
32.33564
32.31874
32.25485
32.31902
32.26127
32.18279
32.18427
32.21931
32.23249
32.25578
32.29304
32.29709
32.26233
32.23317
32.21345
32.19972
32.23924
32.27349
32.2823
32.23831
32.26994
32.2511
32.28701
32.21308
32.24259
32.19144
32.26266
32.27022
32.25152
32.17991
33.25392
33.14724
33.21892
33.40097
33.25391
33.14722
33.04087
33.20036
33.16549
33.19525
33.22623
33.22518
33.16547
33.19526
33.16853
33.12237
33.05735
33.2192
33.21568
33.19526
33.21443
33.13973
33.16995
33.1922
33.16189
33.06778
33.10537
33.12539
33.08514
32.98649
33.0279
33.04293
32.9997
32.95592
32.91186
32.90121
32.9441
32.81676
32.85844
32.86785
32.82442
32.74436
32.77773
32.78255
32.74393
32.76224
32.72339
32.71176
32.69253
32.76982
32.79219
32.82884
32.79072
32.79813
32.7441
32.69512
32.71223
32.75938
32.64644
32.59974
32.61069
32.66154
32.55768
32.52761
32.52131
32.56242
32.55897
32.59228
32.62343
32.5971
32.50255
32.55913
32.59244
32.57459
32.55794
32.60673
32.62261
32.63659
32.61617
32.60827
32.56471
32.58743
32.62219
32.59898
32.53364
32.57096
32.53995
32.5032
32.53324
32.50009
32.49537
32.48316
32.51784
32.46917
32.46263
32.48464
32.48026
32.4693
32.43683
32.47278
32.44363
32.44694
32.44989
32.48472
32.43155
32.43035
32.41039
32.43742
32.35261
32.35844
32.40558
32.33204
32.39321
32.36528
32.35488
32.36338
32.36773
32.40698
32.36399
32.34078
32.37598
32.33306
32.27816
32.31619
32.27413
32.35955
32.3539
32.33506
32.32468
32.18579
32.20507
32.24344
32.296
32.2904
32.24723
32.33229
32.33421
32.35278
32.35584
32.34388
32.33577
32.26168
32.22787
32.26977
32.30731
32.32912
32.29763
32.25965
32.2612
32.3012
32.22518
32.30411
32.19766
32.17595
32.26031
32.26199
32.18363
33.20041
33.03181
33.04094
33.20042
33.05742
33.03907
33.05384
33.12244
33.16605
33.08357
33.16509
33.16714
33.18981
33.18181
33.21148
33.21179
33.18219
33.09845
33.14208
33.14251
33.09892
33.00873
33.05367
33.05422
33.00934
32.9191
32.96386
32.9645
32.91976
32.83051
32.87455
32.87521
32.83116
32.74706
32.7876
32.7882
32.74758
32.6838
32.71103
32.71148
32.68418
32.73544
32.67225
32.67256
32.73577
32.73938
32.77185
32.72727
32.73415
32.77825
32.6809
32.67499
32.62117
32.62584
32.56947
32.52447
32.52649
32.57286
32.50091
32.55577
32.57408
32.55673
32.50165
32.61847
32.64056
32.64205
32.62053
32.54475
32.57157
32.52862
32.49181
32.51327
32.61955
32.58848
32.54471
32.57156
32.47292
32.4747
32.44655
32.47688
32.44544
32.44987
32.42324
32.45093
32.41575
32.4414
32.45554
32.44074
32.4655
32.49739
32.42213
32.45551
32.44068
32.39999
32.38205
32.46536
32.46316
32.44655
32.47703
32.42362
32.47917
32.50427
32.46638
32.43781
32.48713
32.46366
32.43851
32.4201
32.47909
32.39488
32.33451
32.3367
32.33787
32.42229
32.37079
32.36826
32.35996
32.30756
32.30485
32.38719
32.30094
32.32723
32.33881
32.35493
32.39768
32.31183
32.34064
32.24452
32.25492
32.35044
32.28304
32.28527
32.33923
32.40487
32.36521
32.23779
32.31969
32.346
32.33599
32.3029
32.24801
32.28005
32.3616
32.3543
32.36437
32.36882
32.36558
32.3653
32.23185
32.26378
32.30099
32.33316
32.30894
32.27185
32.26816
32.26618
32.28566
32.36728
32.3004
32.32209
32.26824
32.26513
32.34989
32.32237
33.25404
33.40107
33.21903
33.14736
33.16563
33.2253
33.22638
33.19545
33.21464
33.19552
33.21615
33.21954
33.16256
33.19278
33.17026
33.14008
33.08596
33.12613
33.10577
33.06823
33.00076
33.04387
33.02844
32.9871
32.94476
32.90188
32.913
32.95704
32.82552
32.86898
32.85909
32.81738
32.74481
32.78357
32.7783
32.74487
32.6932
32.71254
32.72384
32.76266
32.77018
32.73435
32.76436
32.7984
32.77216
32.72756
32.71241
32.75958
32.67529
32.62153
32.6109
32.66172
32.56988
32.52489
32.52157
32.56266
32.55625
32.574
32.55819
32.50282
32.50133
32.62094
32.64242
32.64128
32.61924
32.49203
32.52893
32.57218
32.5452
32.5136
32.47605
32.44678
32.47871
32.44552
32.47308
32.42602
32.45166
32.45191
32.42633
32.4601
32.43022
32.42792
32.39483
32.42896
32.39948
32.39748
32.35352
32.37668
32.42185
32.44324
32.50336
32.4677
32.42192
32.44337
32.43732
32.42743
32.41956
32.46306
32.42115
32.48455
32.46649
32.43056
32.3843
32.35703
32.40712
32.4194
32.46163
32.47152
32.44513
32.43699
32.40325
32.44655
32.45878
32.45378
32.47166
32.39684
32.46982
32.45879
32.43621
32.42007
32.42943
32.48914
32.37643
32.37955
32.41097
32.43383
32.46806
32.39513
32.39138
32.31358
32.30722
32.40274
32.32581
32.32207
32.32702
32.31294
32.22399
32.19053
32.22822
32.34405
32.35794
32.33987
32.30816
32.27148
32.31219
32.36203
32.3478
32.35339
32.35821
32.3609
32.36703
32.25707
32.23503
32.25106
32.27515
32.31139
32.28894
32.32351
32.28716
32.3262
32.25454
32.31257
32.30374
32.34911
32.40401
32.39401
32.34908
32.40409
32.31287
32.32385
32.3634
33.23158
33.42103
33.408
33.22224
33.21461
33.22613
33.21551
33.20194
33.17683
33.19811
33.18266
33.15854
33.13041
33.09904
33.12048
33.15079
33.05013
33.08668
33.065
33.02862
32.97131
33.01145
32.99035
32.951
32.88956
32.93045
32.91188
32.87503
32.84338
32.82086
32.81155
32.84939
32.75914
32.7791
32.84561
32.85946
32.83427
32.79649
32.8261
32.8594
32.82897
32.79077
32.77156
32.81903
32.74412
32.69512
32.67453
32.72253
32.64642
32.5997
32.58901
32.62928
32.55764
32.52756
32.59093
32.5605
32.55927
32.59733
32.62366
32.59261
32.61666
32.63709
32.62282
32.60691
32.62228
32.6043
32.61996
32.58882
32.58754
32.52092
32.47488
32.44665
32.47289
32.50193
32.42355
32.45025
32.44155
32.41587
32.45111
32.39505
32.41768
32.38218
32.42232
32.42821
32.3537
32.39762
32.44345
32.4221
32.37696
32.43867
32.48212
32.44584
32.48241
32.43893
32.38145
32.36599
32.37446
32.40594
32.43448
32.41633
32.48271
32.51303
32.52755
32.47279
32.4838
32.44526
32.51194
32.49067
32.49466
32.49659
32.46747
32.52864
32.48761
32.43636
32.43147
32.51956
32.47878
32.41582
32.47656
32.3993
32.315
32.35659
32.43837
32.41798
32.44876
32.39711
32.30226
32.38407
32.33262
32.41438
32.31643
32.31096
32.32228
32.31905
32.31988
32.4259
32.38948
32.2858
32.31889
32.32713
32.2772
32.24019
32.22672
32.28435
32.30891
32.2933
32.28929
32.30495
32.3368
32.33357
32.35301
32.37422
32.36934
32.34269
32.41269
32.25716
32.25839
32.35326
32.37441
32.32133
32.37593
32.36444
32.39625
32.37369
32.3851
32.37403
32.39883
32.45525
32.44504
32.37371
32.3988
32.45525
32.39628
32.37605
32.36453
32.39787
32.39234
32.33392
33.19837
33.38491
33.32841
33.13402
33.12589
33.11041
33.17544
33.19054
33.12801
33.15428
33.08943
33.0652
33.06294
33.09732
33.04155
33.02496
32.99012
33.02658
33.05091
33.04893
33.01401
32.97761
32.9181
32.9533
32.92037
32.89173
32.95333
32.94087
32.94122
32.96658
32.93113
32.91711
32.94068
32.88584
32.90944
32.85129
32.90409
32.91206
32.80369
32.87998
32.8315
32.75686
32.78297
32.73347
32.67141
32.71192
32.68486
32.64015
32.65679
32.63945
32.60732
32.63305
32.6525
32.65514
32.66721
32.64852
32.67894
32.63842
32.63885
32.59814
32.64098
32.57836
32.53835
32.63729
32.60014
32.5674
32.6239
32.66014
32.60826
32.56474
32.52999
32.63473
32.63023
32.54001
32.57102
32.53369
32.53333
32.50331
32.51787
32.47714
32.45838
32.4832
32.45559
32.49741
32.46548
32.44077
32.50345
32.46784
32.44657
32.47704
32.46523
32.42149
32.46342
32.41972
32.42746
32.43736
32.37507
32.40634
32.41277
32.38451
32.35736
32.35376
32.50146
32.43784
32.47283
32.48391
32.47869
32.37662
32.36127
32.35539
32.36126
32.37661
32.38448
32.45981
32.52868
32.49953
32.43838
32.44772
32.37826
32.37947
32.31318
32.38263
32.35568
32.33836
32.35747
32.28444
32.43469
32.39515
32.41645
32.45231
32.41431
32.3763
32.29326
32.38176
32.28318
32.29557
32.39611
32.31048
32.37999
32.41361
32.41079
32.4059
32.31502
32.3591
32.2524
32.21568
32.21538
32.29414
32.38068
32.29909
32.34098
32.39699
32.29366
32.21886
32.22538
32.29916
32.34103
32.33235
32.2951
32.32939
32.31518
32.35356
32.38073
32.33246
32.35186
32.37733
32.38076
32.34865
32.38491
32.35703
32.39406
32.34623
32.40232
32.37191
32.34895
32.42693
32.43756
32.3552
32.34896
32.42693
32.40233
32.37192
32.39407
32.34625
33.10361
33.33217
33.43686
33.17912
33.07832
33.09458
33.16967
33.15249
33.03459
33.05728
33.12996
33.10413
33.01059
33.01583
33.07694
33.05064
33.04107
33.04334
33.02274
32.98899
33.07739
33.09552
33.04108
33.04334
32.98302
33.0124
32.95234
32.91943
33.06764
33.03309
32.98303
33.01241
32.91516
32.9421
32.99564
32.97578
32.90247
33.01104
32.99607
32.99566
32.97579
32.96119
32.91837
32.92823
32.95839
32.87237
32.82489
32.84439
32.88743
32.77694
32.72954
32.76325
32.80231
32.68526
32.6497
32.72157
32.73793
32.63006
32.66733
32.66476
32.69357
32.69888
32.72172
32.71744
32.72434
32.69886
32.72168
32.67273
32.64971
32.64565
32.62066
32.67508
32.6849
32.65211
32.52595
32.56489
32.61287
32.58755
32.6537
32.5631
32.60172
32.61895
32.64534
32.63697
32.62388
32.53012
32.58483
32.51359
32.52606
32.53327
32.55247
32.54899
32.47833
32.47361
32.48586
32.46263
32.48009
32.50012
32.49541
32.47835
32.47363
32.46292
32.4695
32.48034
32.4848
32.46292
32.46949
32.47435
32.46373
32.487
32.44673
32.4435
32.47258
32.43649
32.4496
32.46536
32.46316
32.44671
32.44349
32.46619
32.50402
32.47896
32.48702
32.43768
32.4846
32.4665
32.50127
32.47899
32.4636
32.4789
32.44514
32.47153
32.46167
32.41946
32.43703
32.48275
32.51307
32.44514
32.47152
32.46745
32.49655
32.49463
32.4906
32.51178
32.52852
32.44918
32.43899
32.50032
32.52909
32.46044
32.43821
32.39794
32.42305
32.38247
32.37742
32.39332
32.5106
32.4496
32.40036
32.46966
32.46875
32.50202
32.46986
32.46881
32.43294
32.44151
32.42524
32.49048
32.44189
32.43088
32.4455
32.34852
32.37999
32.39396
32.2968
32.33499
32.41692
32.3671
32.41121
32.43039
32.44433
32.33407
32.38893
32.29379
32.39391
32.41942
32.21028
32.2706
32.38896
32.29382
32.24354
32.27362
32.41954
32.46685
32.41773
32.41234
32.33895
32.34781
32.38517
32.36286
32.38369
32.40085
32.39892
32.35637
32.33092
32.41166
32.39853
32.38502
32.40343
32.41102
32.39459
32.42621
32.42521
32.41476
32.44918
32.4143
32.38053
32.36809
32.35034
32.34687
32.38054
32.36811
32.41478
32.44923
32.42623
32.4252
33.26176
33.09799
33.17652
33.43863
33.26179
33.098
33.06771
33.30906
33.09186
33.07767
33.15524
33.16986
33.09187
33.07768
33.04152
33.05838
33.05703
33.0315
33.10833
33.13414
33.05704
33.03152
32.99152
33.01881
33.00248
32.9712
33.04816
33.07928
33.00249
32.97121
32.92711
32.96064
32.93892
32.90717
32.98313
33.01586
32.93893
32.90719
32.8571
32.89208
32.87829
32.85707
32.9224
32.95108
32.82449
32.8783
32.85708
32.79826
32.85993
32.89289
32.89965
32.90696
32.85995
32.89288
32.83849
32.81123
32.78803
32.8301
32.87228
32.86136
32.82991
32.78919
32.74923
32.73883
32.78484
32.65915
32.69529
32.72289
32.70903
32.66275
32.64138
32.68366
32.64659
32.62321
32.65461
32.60478
32.56302
32.70902
32.68222
32.62323
32.65463
32.57842
32.59093
32.52667
32.50466
32.64789
32.62154
32.57845
32.59096
32.59838
32.55488
32.57146
32.54789
32.59384
32.50921
32.49247
32.53202
32.5478
32.53341
32.55238
32.59388
32.56335
32.53345
32.55242
32.51044
32.52983
32.51411
32.5573
32.54224
32.52115
32.52058
32.44393
32.47894
32.43439
32.39803
32.42745
32.52797
32.46106
32.44398
32.479
32.44087
32.46457
32.48015
32.46384
32.44092
32.46462
32.45515
32.424
32.44045
32.47244
32.46251
32.46384
32.43687
32.46295
32.48088
32.48572
32.47248
32.46255
32.45414
32.45291
32.46241
32.46951
32.45417
32.45293
32.44277
32.41985
32.4599
32.409
32.42047
32.43115
32.37878
32.3979
32.43033
32.41036
32.409
32.42048
32.35249
32.33201
32.40556
32.35833
32.35244
32.33193
32.3237
32.30717
32.37163
32.39475
32.33438
32.36328
32.3931
32.3969
32.35987
32.36813
32.37071
32.38724
32.30493
32.30759
32.40329
32.44674
32.37086
32.38724
32.46948
32.48884
32.42916
32.41979
32.4359
32.45847
32.48795
32.43672
32.46992
32.48922
32.35641
32.31481
32.39904
32.47628
32.41559
32.35555
32.28432
32.35738
32.33828
32.3025
32.29342
32.35577
32.28452
32.29342
32.39732
32.43293
32.46878
32.46981
32.50197
32.46871
32.3855
32.33292
32.44192
32.43092
32.38211
32.39006
32.30826
32.29501
32.30826
32.39006
32.40651
32.31817
32.29322
32.23699
32.27694
32.26065
32.34371
32.37539
32.32169
32.35383
32.34341
32.31974
32.17592
32.28169
32.24329
32.14255
32.11817
32.33117
32.30455
32.17594
32.28172
32.33739
32.21646
32.16199
32.21816
32.33798
32.35068
32.38478
32.4367
32.33797
32.33738
32.3918
32.30877
32.38947
32.40636
32.39134
32.30817
32.28329
32.37959
32.35236
32.28153
32.34888
32.22663
32.20823
32.2832
32.28582
32.38436
32.359
32.36275
32.34586
32.38281
32.35707
32.28022
32.34777
32.26581
32.34361
32.28998
32.3003
32.32068
32.29274
32.33989
32.31465
32.36399
32.35359
32.3509
32.34407
32.36415
32.35371
32.33979
32.31454
32.265
32.34243
32.29418
32.23751
32.26751
32.29473
32.30942
32.35393
32.34495
32.33186
32.29026
32.35402
32.33697
32.26819
32.29044
32.35419
32.35414
32.34516
32.3096
32.29436
33.42806
33.16676
33.09614
33.35532
33.15552
33.13576
33.1007
33.09573
33.1106
33.08189
33.10998
33.11307
33.04977
33.01427
33.04995
33.08311
32.97629
32.93721
32.97367
33.013
32.8983
32.86021
32.89263
32.93323
32.8233
32.78393
32.81172
32.85219
32.73895
32.69192
32.72688
32.7704
32.64641
32.60736
32.63502
32.68103
32.58594
32.60302
32.55063
32.59202
32.59244
32.58432
32.64253
32.65713
32.59248
32.58435
32.4925
32.5131
32.60672
32.54808
32.57824
32.60647
32.63229
32.52975
32.56798
32.57339
32.55035
32.4468
32.48931
32.51166
32.46788
32.44526
32.41882
32.42264
32.38667
32.41207
32.50159
32.49432
32.50169
32.47087
32.5297
32.52925
32.50175
32.47093
32.47464
32.43201
32.41472
32.50997
32.39586
32.47606
32.43291
32.42587
32.44291
32.33346
32.34707
32.35193
32.35963
32.35501
32.39183
32.40095
32.35972
32.3551
32.37475
32.37326
32.41547
32.41487
32.37484
32.37334
32.3659
32.37103
32.36144
32.36356
32.36052
32.35303
32.36232
32.37611
32.41285
32.4028
32.36241
32.37619
32.35141
32.32759
32.36578
32.38539
32.35149
32.32767
32.31483
32.3245
32.33943
32.28831
32.2699
32.26373
32.27753
32.30611
32.33492
32.30551
32.27761
32.30617
32.3117
32.26658
32.29296
32.33686
32.29583
32.36775
32.34076
32.36395
32.407
32.34089
32.31854
32.28748
32.25387
32.26654
32.36783
32.30116
32.32744
32.31632
32.37611
32.33841
32.28294
32.3503
32.25483
32.24444
32.34058
32.28519
32.37674
32.37979
32.28319
32.35058
32.30713
32.3135
32.39133
32.322
32.32573
32.40262
32.4386
32.41817
32.32594
32.40287
32.31639
32.41431
32.33255
32.319
32.32225
32.31092
32.43482
32.39526
32.31655
32.41448
32.29323
32.31045
32.39609
32.29555
32.28315
32.38172
32.44158
32.4253
32.28326
32.38185
32.34851
32.41691
32.33497
32.29679
32.39395
32.37998
32.29324
32.23701
32.23355
32.29556
32.38676
32.33577
32.20585
32.32171
32.35385
32.33039
32.211
32.13019
32.12109
32.13019
32.211
32.24096
32.34431
32.34861
32.32642
32.24694
32.2727
32.32552
32.32579
32.3045
32.33064
32.37231
32.29299
32.27531
32.22945
32.22879
32.24814
32.27736
32.16177
32.19951
32.21386
32.19337
32.17831
32.2549
32.26483
32.27132
32.23108
32.25451
32.26454
32.236
32.23495
32.16019
32.1854
32.26453
32.24351
32.28629
32.24846
32.26363
32.24305
32.18863
32.25296
32.23921
32.29929
32.22256
32.28037
32.28791
32.28825
32.31337
32.31935
32.31373
32.3292
32.33439
32.31943
32.31383
32.28841
32.31352
32.28054
32.28806
32.29924
32.22247
32.2483
32.26619
32.28687
32.28271
32.24512
32.2405
32.27163
32.2534
32.26986
32.26428
32.28777
32.26994
32.24522
32.8817
33.08644
33.07386
32.87446
32.91351
32.88993
32.88562
32.90942
33.0164
32.98513
33.00626
33.0563
33.01551
33.06848
33.01641
32.98514
33.07501
33.0585
33.05498
33.01223
33.04917
33.0228
32.98136
32.96517
33.01244
32.93772
32.89385
32.86958
32.91708
32.82337
32.85078
32.80888
32.77888
32.76746
32.72472
32.6917
32.73551
32.67948
32.63259
32.59982
32.64635
32.58604
32.54187
32.50962
32.55357
32.47043
32.5022
32.47017
32.4399
32.44777
32.44144
32.44117
32.42634
32.56916
32.50256
32.53411
32.51967
32.5747
32.47996
32.52887
32.52807
32.47178
32.41363
32.36799
32.38741
32.42796
32.43701
32.40332
32.37676
32.45549
32.48899
32.42861
32.40469
32.41418
32.43453
32.36405
32.34442
32.41973
32.42567
32.36414
32.34452
32.32842
32.31542
32.30113
32.35869
32.34686
32.34251
32.35377
32.37858
32.39083
32.31083
32.24888
32.38001
32.29593
32.3536
32.27115
32.24845
32.23399
32.33671
32.27155
32.21734
32.23808
32.25669
32.29759
32.29634
32.22077
32.20034
32.31547
32.32808
32.27689
32.25144
32.28825
32.26905
32.30759
32.32631
32.27273
32.28206
32.34117
32.34241
32.29163
32.19729
32.21502
32.25485
32.31875
32.33564
32.32466
32.33503
32.35388
32.35954
32.27412
32.33921
32.23777
32.36519
32.40483
32.18595
32.21433
32.33938
32.23794
32.21732
32.24739
32.31306
32.22411
32.26852
32.30304
32.24815
32.27051
32.31987
32.28579
32.38947
32.42588
32.2716
32.22559
32.32001
32.28593
32.25851
32.30828
32.37998
32.31502
32.4059
32.41079
32.4136
32.2268
32.26097
32.38009
32.31513
32.24027
32.43039
32.41122
32.3671
32.33406
32.44433
32.31976
32.34374
32.31155
32.27365
32.21032
32.2399
32.14254
32.24328
32.28167
32.17589
32.11815
32.27269
32.24693
32.32641
32.34859
32.34431
32.32551
32.3351
32.24628
32.24254
32.22296
32.25711
32.20762
32.19593
32.19592
32.20762
32.21975
32.16144
32.17358
32.19857
32.21388
32.21156
32.12714
32.12071
32.18873
32.19093
32.16058
32.21303
32.20734
32.18688
32.22019
32.20735
32.13134
32.14388
32.15174
32.2131
32.05823
32.14569
32.19872
32.24378
32.13688
32.18547
32.19797
32.13804
32.09421
32.16055
32.17432
32.17703
32.20156
32.18575
32.19808
32.17787
32.19265
32.18594
32.19222
32.20142
32.18457
32.23862
32.25308
32.24033
32.25887
32.23877
32.25329
32.1782
32.19281
32.25016
32.24138
32.28896
32.29939
32.30229
32.28898
32.29939
32.31299
32.25027
32.24146
32.23257
32.25717
32.22445
33.23428
33.12531
33.00085
33.0101
33.00814
33.00752
33.02323
33.00447
33.02442
33.08666
32.92891
32.97659
33.0285
33.05191
32.99283
32.86325
32.89624
32.94528
32.89888
32.79257
32.82855
32.8533
32.80795
32.71691
32.75548
32.76264
32.71771
32.63419
32.6765
32.67339
32.62947
32.55107
32.59119
32.58572
32.54239
32.48753
32.51752
32.50036
32.46202
32.44317
32.4604
32.43346
32.42616
32.53768
32.50139
32.50066
32.51876
32.57355
32.54414
32.54309
32.5096
32.54615
32.52963
32.45934
32.42707
32.48743
32.40054
32.34409
32.32742
32.36872
32.29761
32.29163
32.41283
32.46206
32.43942
32.45275
32.36381
32.48909
32.37028
32.31259
32.41229
32.3602
32.38897
32.38275
32.37876
32.318
32.32391
32.26614
32.26101
32.30775
32.3487
32.2333
32.26816
32.28993
32.23515
32.24634
32.21681
32.21746
32.28684
32.25104
32.23221
32.29425
32.2311
32.22472
32.29604
32.33083
32.3182
32.22844
32.21014
32.22658
32.30965
32.26394
32.25941
32.22214
32.28518
32.15724
32.21933
32.20362
32.1487
32.17436
32.24231
32.26001
32.31135
32.33861
32.33105
32.26142
32.25875
32.26143
32.18296
32.19748
32.17251
32.24361
32.29617
32.31572
32.29727
32.2625
32.24276
32.31985
32.34615
32.35858
32.356
32.34404
32.32912
32.34419
32.35807
32.36688
32.36894
32.36572
32.35624