/*--------------------------------*- C++ -*----------------------------------*\
| =========                 |                                                 |
| \\      /  F ield         | OpenFOAM: The Open Source CFD Toolbox           |
|  \\    /   O peration     | Version:  5.x                                   |
|   \\  /    A nd           | Web:      www.OpenFOAM.org                      |
|    \\/     M anipulation  |                                                 |
\*---------------------------------------------------------------------------*/
FoamFile
{
    version     2.0;
    format      ascii;
    class       volScalarField;
    location    "20/tissue";
    object      T;
}
// * * * * * * * * * * * * * * * * * * * * * * * * * * * * * * * * * * * * * //

dimensions      [0 0 0 1 0 0 0];

internalField   nonuniform List<scalar> 
87936
(
32.73005
33.13315
33.15266
33.03398
32.73216
33.11653
33.13624
33.02007
32.76079
33.08439
33.10316
33.00027
32.81017
33.04219
33.06175
32.96172
32.96928
33.02342
32.73377
32.92587
32.99907
32.67224
32.89321
32.98744
32.69251
32.78994
32.98242
32.78325
33.2093
33.6777
34.06898
34.44067
34.51008
34.29179
33.92948
33.30123
32.88873
33.15677
33.63783
34.02594
34.39759
34.47014
34.24503
33.88997
33.28474
32.90017
33.00613
33.53646
33.92921
34.306
34.38844
34.13944
33.80339
33.24405
32.83912
33.30557
33.82439
34.19379
34.28457
34.01006
33.65001
33.2077
32.77548
33.22282
33.7614
34.07663
34.1662
33.90071
33.56795
33.15717
32.70671
33.13352
33.66156
33.92404
34.0258
33.76119
33.47121
33.08517
32.63787
33.04152
33.52263
33.73319
33.86645
33.60038
33.34942
33.00471
32.5713
32.94905
33.38469
33.54354
33.67903
33.46851
33.20809
32.91437
32.50585
32.86205
33.23096
33.37539
33.46821
33.32354
33.00697
32.78396
32.83584
33.10206
33.2911
33.35838
33.22504
32.84891
32.58724
32.75971
32.9787
33.20198
33.25546
33.12488
32.77102
32.44983
32.65122
32.79386
33.10023
33.15297
32.99328
32.76646
32.37813
32.57338
32.68246
32.9872
33.04816
32.8338
32.69264
32.35
32.36226
32.67465
32.86672
32.93554
32.66444
32.58198
32.31647
32.56083
32.64539
32.7312
32.56793
32.50508
32.5851
32.65093
32.68836
32.62411
32.40194
32.34585
32.47188
32.26272
33.54535
34.42498
35.14695
35.85492
36.07861
36.12525
35.99061
35.45801
34.82006
34.05078
33.11989
33.52589
34.3758
35.07889
35.7422
35.94064
35.97701
35.87577
35.3828
34.7617
34.02648
33.09548
33.48145
34.29658
34.95929
35.57696
35.74824
35.76665
35.6927
35.25409
34.66382
33.97744
33.05458
33.41899
34.20273
34.83772
35.37884
35.54102
35.54692
35.486
35.1023
34.57122
33.89962
32.9998
33.3456
34.09545
34.70658
35.15245
35.36671
35.40422
35.32592
34.95048
34.46043
33.80606
32.93592
33.26541
33.98374
34.57352
34.98145
35.19464
35.23095
35.15834
34.79702
34.33907
33.69932
32.8643
33.1811
33.86123
34.4325
34.82375
35.05525
35.06698
34.96994
34.64264
34.19356
33.56811
32.78101
33.09246
33.72845
34.28498
34.67235
34.89757
34.9312
34.80711
34.48719
34.03905
33.3805
32.67352
33.02968
33.60037
34.15019
34.53066
34.75768
34.7953
34.67077
34.3449
33.88735
33.23676
32.60267
32.91366
33.4872
34.01785
34.38501
34.6281
34.67048
34.53094
34.21127
33.74644
33.10324
32.54395
32.71517
33.36457
33.86569
34.22089
34.49748
34.5489
34.38054
34.05963
33.60893
32.99197
32.56993
33.19576
33.70378
34.06738
34.35734
34.41947
34.22418
33.91655
33.45574
32.89534
32.43959
32.99429
33.51718
33.92718
34.21156
34.28082
34.07571
33.75374
33.28837
32.82031
32.37018
32.8367
33.36019
33.78005
34.06749
34.13771
33.93437
33.58445
33.15689
32.70407
32.69397
33.2057
33.62399
33.92702
33.99302
33.7948
33.40202
32.9832
32.46346
32.72316
33.0768
33.44758
33.74518
33.80165
33.61985
33.25996
32.84454
32.40185
32.34874
32.78269
33.20749
33.43309
33.47314
33.33039
33.02574
32.69528
32.5231
32.81734
33.07583
33.12381
32.9842
32.66832
32.21858
32.13459
32.53201
32.65331
32.70757
32.66945
32.37761
32.29011
32.33236
32.20255
33.05487
34.02784
34.98758
35.94851
36.37212
35.62471
34.44551
33.52404
33.04056
33.96967
34.93826
35.83763
36.16855
35.53922
34.4064
33.50835
33.01851
33.86977
34.84778
35.65607
35.92695
35.4057
34.33227
33.48105
33.76491
34.73915
35.47338
35.7448
35.2525
34.24125
33.3344
33.66375
34.62663
35.34192
35.59903
35.12152
34.14363
33.21123
33.55827
34.51326
35.18728
35.52872
35.39191
34.96906
34.04329
33.09753
33.45022
34.39603
35.06447
35.40649
35.23977
34.78866
33.93841
32.99405
33.34695
34.27875
34.94681
35.30378
35.11552
34.62592
33.83319
32.89725
33.24559
34.15989
34.83704
35.21444
35.01278
34.49272
33.72565
32.7989
33.14556
34.02505
34.73287
35.04256
35.18664
34.89602
34.36616
33.60649
32.69753
33.04906
33.87256
34.59681
34.92562
35.09116
34.78612
34.23372
33.46224
32.59948
32.96734
33.73027
34.41122
34.84384
35.07529
34.97199
34.69324
34.10152
33.3061
32.52904
32.78373
33.59365
34.26628
34.73795
34.96215
35.04544
34.87186
34.58032
33.97036
33.15741
32.62309
33.45261
34.12701
34.6466
34.87752
35.02251
34.93485
34.78585
34.41879
33.82728
33.02001
32.47053
33.29468
33.98431
34.53613
34.81181
34.92215
34.92885
34.88559
34.69653
34.2567
33.66938
32.88977
32.49479
33.13307
33.81657
34.32063
34.6201
34.75378
34.75623
34.72822
34.53536
34.07153
33.49376
32.86039
32.83321
33.47758
33.9768
34.40534
34.55018
34.5605
34.50845
34.19808
33.76607
33.14027
32.46646
32.4318
33.07185
33.60986
33.99648
34.18262
34.21009
34.10883
33.83702
33.39048
32.78479
32.69574
33.20028
33.59853
33.791
33.82241
33.71985
33.41639
32.96051
32.37216
32.23198
32.75378
33.15933
33.35797
33.40285
33.27681
32.93437
32.58161
32.25226
32.66242
32.86265
32.97
32.79742
32.5405
32.21045
32.45591
32.56189
32.32489
34.15678
35.51998
36.40569
35.92739
34.8131
33.49856
34.09879
35.43039
36.19797
35.81323
34.75778
33.46972
34.01644
35.27657
35.96651
35.62618
34.66074
33.41797
33.93964
35.10953
35.73443
35.42722
34.55224
33.3434
33.84711
34.96011
35.61005
35.28784
34.43575
33.25292
33.74063
34.78418
35.46368
35.13906
34.3101
33.16026
33.62997
34.62468
35.3391
35.01623
34.18386
33.06783
33.51642
34.4934
35.23372
34.90495
34.05648
32.97336
33.39606
34.37317
35.15102
34.80824
33.92413
32.87117
33.28057
34.26007
34.9883
35.19055
34.70474
33.80051
32.76921
33.17253
34.14501
34.856
35.08314
34.59147
33.67647
32.67318
33.05761
34.01759
34.75404
35.02315
34.46807
33.52942
32.57002
32.87851
33.88798
34.64785
34.93565
34.29695
33.38298
32.73941
33.75376
34.5536
34.98792
34.80738
34.16083
33.24889
32.58792
33.60213
34.43517
34.93331
34.6959
34.02777
33.10207
32.54171
33.38866
34.22002
34.75368
34.94371
34.53097
33.84815
33.00048
33.11913
33.90118
34.5131
34.87689
34.70264
34.27363
33.52576
32.66898
32.80108
33.54817
34.22617
34.56732
34.8769
34.74397
34.42314
33.88668
33.14226
32.34415
32.3403
33.12766
33.80006
34.28773
34.54389
34.69271
34.65251
34.65487
34.45553
34.05309
33.49745
32.74522
32.69189
33.36477
33.86047
34.19949
34.41636
34.4319
34.36232
34.04205
33.6478
33.04436
32.29586
32.26297
32.89635
33.44158
33.76834
33.95826
33.99698
33.88999
33.6068
33.21334
32.66542
32.36708
32.91687
33.26664
33.46302
33.52496
33.39957
33.12813
32.70315
32.38672
32.71479
32.88973
32.99909
32.8554
32.62306
32.19154
32.20638
32.36217
32.42746
32.32868
34.06542
35.46421
36.22004
34.71653
33.38716
34.04227
35.38493
36.03959
34.68587
33.35755
33.98806
35.26322
35.83391
34.62525
33.30347
33.91127
35.1453
35.66266
34.54316
33.23293
33.81972
35.02186
35.51193
34.44649
33.15179
33.71849
34.89606
35.36011
34.34062
33.0656
33.60464
34.7719
35.20052
34.22547
32.97247
33.47723
34.64643
35.29711
35.00041
34.09278
32.85544
33.34699
34.45496
35.19536
34.86674
33.94022
32.74718
33.21182
34.31
35.09161
34.75147
33.79493
32.66609
33.05013
34.17715
35.01278
34.64404
33.63725
32.92502
34.05099
34.95306
34.54499
33.49543
32.80988
33.94278
34.84737
34.44327
33.38653
32.68988
33.83208
34.68229
34.96041
34.33802
33.26809
32.55827
33.68098
34.5777
34.8929
34.16799
33.12752
32.51539
33.45853
34.40913
34.75979
33.98544
33.00553
33.20364
34.16241
34.78898
34.45401
33.70831
32.70402
32.7426
33.77776
34.46636
34.76573
34.18175
33.29911
32.4006
33.34646
34.17191
34.66107
34.81889
34.44095
33.77706
32.92127
32.96256
33.7326
34.34313
34.74962
34.5473
34.11089
33.39018
32.50266
32.45391
33.24187
33.92047
34.37467
34.62153
34.7337
34.73737
34.71643
34.50846
34.21071
33.64179
32.92341
32.77768
33.44025
33.9441
34.28065
34.4137
34.43075
34.38308
34.1023
33.72039
33.13735
32.35949
32.24915
32.89808
33.42167
33.76109
33.92802
33.95861
33.87918
33.59796
33.13749
32.62844
32.29249
32.86416
33.20527
33.39845
33.43272
33.32449
33.01972
32.64259
32.25272
32.63201
32.80856
32.85318
32.70199
32.42576
32.26581
32.34564
33.65857
35.32838
36.0788
34.48322
33.63614
35.26406
35.94234
34.45314
33.59029
35.1476
35.75349
34.39009
33.52696
35.01534
35.5602
34.30338
33.45284
34.88847
35.42782
34.19871
33.37141
34.75847
35.26661
34.07171
33.26772
34.55748
35.09429
33.89192
33.18314
34.40894
35.28819
34.91958
33.77899
33.07532
34.28122
35.19608
34.80702
33.66772
32.96059
34.16211
35.09994
34.69525
33.57255
32.85069
34.06331
34.9989
34.58406
33.48403
32.73291
33.96457
34.93869
34.49239
33.37669
32.62491
33.85368
34.8411
34.39857
33.24941
33.69804
34.67381
34.98627
34.28141
33.05538
33.48712
34.55683
34.90738
34.10387
32.88677
33.39264
34.38886
34.78789
33.9323
32.82268
33.12192
34.12855
34.83862
34.49372
33.66859
32.50889
32.71776
33.7896
34.6527
34.24874
33.31268
32.33266
33.39298
34.2855
34.64656
33.87341
32.90328
32.99613
33.89982
34.52578
34.78259
34.26194
33.48428
32.47003
32.49602
33.47972
34.20762
34.74
34.47874
33.87716
33.04608
33.00607
33.77367
34.34331
34.74835
34.5619
34.11833
33.43362
32.50911
32.39861
33.23949
33.89085
34.34942
34.58272
34.70159
34.71296
34.70374
34.45441
34.15848
33.61903
32.89127
32.68102
33.3829
33.85708
34.19051
34.34504
34.35497
34.31438
34.00126
33.64586
33.05337
32.27626
32.74264
33.27135
33.5882
33.79687
33.8394
33.71152
33.44634
33.01664
32.36069
32.64252
32.95594
33.17374
33.23154
33.04466
32.7967
32.29622
32.28889
32.481
32.57563
32.4052
33.3655
34.76088
36.35742
35.55302
34.0857
33.33754
34.72369
36.16753
35.47581
34.06299
33.28851
34.65234
35.93715
35.34304
34.01102
33.22862
34.5643
35.71453
35.19324
33.94
33.15811
34.47267
35.58533
35.0789
33.85412
33.0646
34.37912
35.43718
34.95325
33.7495
32.98558
34.28431
35.3151
34.84766
33.62827
34.18315
35.20303
34.73899
33.47908
34.07283
35.12096
34.64163
33.36354
33.93732
35.02716
34.52648
33.24801
33.75553
34.91339
34.41131
33.11799
33.63752
34.77612
34.26922
33.00947
33.51437
34.61916
35.01149
34.11562
32.87994
33.39752
34.51582
34.92707
33.99703
32.73178
33.27657
34.43294
34.87509
33.89492
32.60073
33.11193
34.2588
34.72952
33.74941
32.80892
33.96381
34.78198
34.41559
33.43674
32.43442
33.67281
34.6284
34.18927
33.09956
33.29552
34.24938
34.6499
33.81629
32.6745
32.80455
33.84863
34.65076
34.26274
33.39168
32.36209
33.40848
34.28706
34.6525
33.96059
32.96383
32.96543
33.86421
34.58595
34.23136
33.46679
32.43647
32.36432
33.35199
34.12047
34.6782
34.38326
33.77157
32.94024
32.84235
33.62587
34.20193
34.6315
34.70902
34.41657
33.91676
33.24413
32.34677
32.22157
33.05176
33.67227
34.17725
34.40581
34.5389
34.59901
34.49122
34.27261
33.91778
33.39864
32.6569
32.34163
33.05897
33.57209
33.88426
34.04721
34.07475
33.99077
33.75288
33.353
32.75077
32.31586
32.92215
33.24743
33.42026
33.46133
33.35662
33.07215
32.6433
32.23107
32.53872
32.73336
32.79584
32.665
32.40686
33.34891
34.43093
36.08332
35.30077
33.74562
33.32564
34.3982
35.94126
35.23403
33.72472
33.27803
34.32569
35.74243
35.10811
33.67452
33.20444
34.21043
35.54991
34.97164
33.59604
33.10381
34.09096
35.39133
34.83325
33.46551
33.01463
33.97575
35.22214
34.63848
33.35674
32.93505
33.86973
35.09315
34.48648
33.22244
33.77037
34.96636
34.37054
33.07829
33.6606
34.85166
34.26206
32.96166
33.54049
34.69705
35.14461
34.15495
32.85428
33.42379
34.59196
35.04686
34.04944
32.7584
33.30269
34.49237
34.96085
33.92959
32.67463
33.12284
34.38761
34.87631
33.7539
32.9752
34.28004
34.78785
33.62635
32.81186
34.13542
34.67122
33.49027
32.74756
33.95686
34.89075
34.46376
33.39089
33.64612
34.69209
34.2063
33.03355
33.35073
34.37983
34.78241
33.90146
32.67874
32.92765
34.09467
34.55091
33.55082
32.5138
33.73703
34.58734
34.17626
33.20173
33.32349
34.20854
34.63072
33.80551
32.69871
32.76883
33.80367
34.60363
34.20981
33.35216
32.26974
33.33929
34.17418
34.55378
33.78668
32.85983
32.82661
33.71825
34.35637
34.66083
34.07874
33.28962
32.26191
33.14918
33.86545
34.40744
34.67618
34.1785
33.55275
32.62232
32.44912
33.2727
33.8997
34.35391
34.61245
34.70957
34.70644
34.67693
34.50458
34.16591
33.63559
32.9356
32.64266
33.33779
33.79174
34.06673
34.26977
34.28505
34.21734
33.94823
33.55485
33.01548
32.23396
32.63652
33.06817
33.451
33.63541
33.65943
33.56679
33.31217
32.88177
32.25611
32.29972
32.66917
32.8796
32.89478
32.82771
32.55596
33.41123
34.27483
35.40924
36.28031
34.71819
33.81578
33.39111
34.25003
35.34357
36.10391
34.68362
33.79815
33.35043
34.19771
35.22719
35.88339
34.61446
33.75536
33.29321
34.12729
35.09727
35.67447
34.52757
33.69414
33.22295
34.04567
34.97121
35.52044
34.43435
33.61999
33.14247
33.95221
34.86581
35.39722
34.33014
33.53569
33.05489
33.8461
34.74945
35.28968
34.21235
33.445
32.96272
33.71311
34.62849
35.15162
34.09467
33.34339
32.87115
33.56904
34.48655
35.01307
33.96928
33.21778
33.44332
34.34601
34.89707
33.84313
33.07559
33.3263
34.22392
34.79548
33.71751
32.95429
33.21177
34.10418
34.68482
33.58677
32.83577
33.08099
33.99367
35.00435
34.55011
33.41588
32.71967
32.93199
33.88478
34.90513
34.44674
33.28946
32.61671
32.76003
33.75306
34.83894
34.35116
33.14213
32.7063
33.57555
34.64939
34.16257
33.02354
33.31327
34.36464
34.81958
33.85601
32.67529
32.89842
34.12616
34.6223
33.53658
32.49031
33.7905
34.71305
34.26581
33.21255
33.42902
34.44777
33.97067
32.75549
32.9395
34.06211
34.51829
33.5457
32.45781
33.67855
34.54637
34.11986
33.14504
33.198
34.11768
34.52658
33.68725
32.569
32.58955
33.65883
34.38083
34.68808
34.04498
33.18334
33.13472
33.96358
34.61734
34.27506
33.56427
32.54879
32.40495
33.3565
34.07392
34.64157
34.35001
33.73936
32.96071
32.74607
33.50375
34.10628
34.50334
34.71253
34.64106
34.32807
33.81298
33.15494
32.2349
32.84196
33.47662
33.9096
34.23898
34.35348
34.35461
34.35388
34.13458
33.74665
33.16158
32.39736
32.70938
33.17908
33.55413
33.69648
33.70458
33.65771
33.42203
33.01974
32.35239
32.4592
32.80759
32.93596
32.95589
32.89384
32.61034
32.25017
33.49805
34.32587
35.23443
36.29182
35.7853
34.77278
33.85249
33.14557
33.46673
34.30298
35.17968
36.11775
35.68657
34.73892
33.83949
33.14544
33.41116
34.25287
35.08249
35.90072
35.53284
34.67206
33.80281
33.34281
34.18354
34.97217
35.69449
35.37267
34.58761
33.74474
33.26551
34.10177
34.86523
35.57918
35.2623
34.49552
33.66923
33.18122
34.01119
34.75637
35.45151
35.13861
34.39779
33.58357
33.09219
33.91318
34.64368
35.34249
35.02774
34.29432
33.49105
32.99965
33.80592
34.52197
35.21505
34.91137
34.18095
33.39343
32.90517
33.68117
34.39543
35.11466
34.80818
34.05136
33.29181
32.80988
33.50778
34.27596
34.992
34.68127
33.91656
33.17244
33.39482
34.15099
34.86896
34.48307
33.79659
33.01925
33.27989
34.03629
34.78985
34.35768
33.68071
32.90063
33.16596
33.9228
34.69871
34.24444
33.56232
32.78242
33.04483
33.79411
34.57138
35.01058
34.13052
33.41417
32.66566
32.87214
33.67227
34.47362
34.93159
34.01917
33.24981
32.5639
32.80973
33.52267
34.29849
34.77877
33.85019
33.16979
33.20721
34.0279
34.52249
33.55646
32.82349
32.78641
33.72822
34.72213
34.23552
33.1811
33.3934
34.47458
33.98078
32.69277
32.92749
34.08414
34.59946
33.57896
32.46723
33.75322
34.68214
34.21714
33.20682
33.35104
34.31733
34.6945
33.89617
32.65712
32.76643
33.93269
34.69234
34.31684
33.40009
33.408
34.30074
34.64874
33.9272
32.8221
32.81417
33.89595
34.61843
34.2376
33.38447
33.30663
34.09416
34.67332
34.40597
33.71142
32.73907
32.61508
33.59669
34.21116
34.67911
34.47705
33.95257
33.15203
32.92471
33.65292
34.1894
34.58301
34.70103
34.39359
33.97162
33.30819
32.37355
32.94815
33.54009
33.98363
34.29017
34.39555
34.3875
34.34792
34.18242
33.79564
33.26479
32.4856
32.78041
33.34404
33.62195
33.76491
33.79986
33.70149
33.4771
33.06156
32.41116
32.51634
32.83854
32.9764
33.00299
32.92309
32.63397
32.24472
33.56822
34.43117
35.30364
36.32729
35.81602
34.84929
34.00705
33.16687
33.55278
34.3887
35.24267
36.14722
35.71669
34.80544
33.97052
33.15542
33.47682
34.31774
35.13685
35.92651
35.55962
34.72718
33.86789
33.14706
33.3966
34.23453
35.01859
35.71392
35.39493
34.63336
33.79811
33.29762
34.14135
34.90525
35.59765
35.2808
34.53352
33.70729
33.2015
34.04457
34.79396
35.46626
35.15576
34.43181
33.61248
33.10859
33.94563
34.68248
35.33498
35.0392
34.32896
33.51655
33.01558
33.84319
34.56724
35.16526
35.36481
34.90562
34.22304
33.41874
32.92193
33.73426
34.44462
35.02456
35.28667
34.75908
34.10943
33.31895
32.82884
33.60811
34.30792
34.92466
35.20092
34.62425
33.97638
33.21629
32.72644
33.43736
34.19023
34.83765
35.09944
34.51665
33.84382
33.07932
33.32549
34.08302
34.74282
35.02452
34.41273
33.7284
32.94487
33.20275
33.97198
34.63916
34.91976
34.30306
33.60822
32.81378
33.07593
33.84605
34.48965
34.82385
34.17591
33.47234
32.68632
32.91172
33.70398
34.37315
34.97995
34.73612
34.05126
33.27622
32.56224
32.83969
33.5633
34.22291
34.83461
34.56599
33.90706
33.20335
32.53282
33.24515
33.9455
34.62609
34.30884
33.6177
32.87184
32.86623
33.60583
34.34273
34.79548
33.91913
33.22659
32.48285
32.46317
33.20233
34.06229
34.53936
33.56511
32.84575
32.78203
33.69998
34.70816
34.22706
33.15878
32.4275
33.33673
34.36868
33.9087
32.64166
32.80641
33.99652
34.47527
33.46123
33.52999
34.55225
34.04011
32.91324
33.08448
34.06232
34.51955
33.64326
32.35964
32.41767
33.64017
34.47397
34.0522
33.14588
33.09713
33.98212
34.67184
34.33756
33.59765
32.414
32.32207
33.41387
34.21343
34.58903
33.8909
32.9851
32.69698
33.65617
34.2672
34.59622
33.98532
33.2669
32.97815
33.68427
34.20794
34.65761
34.41423
33.98966
33.35064
32.44828
32.97037
33.55885
34.08896
34.31693
34.43787
34.51006
34.36251
34.21389
33.82172
33.28716
32.50469
32.78174
33.33221
33.61671
33.75799
33.78173
33.69835
33.47227
33.06105
32.4119
32.35544
32.76787
32.93678
32.95125
32.8893
32.58931
33.49817
34.43131
35.35214
36.35416
35.85644
34.88435
33.95163
33.46691
34.38885
35.28718
36.17317
35.75131
34.83676
33.88482
33.41153
34.31793
35.17504
35.96219
35.60279
34.74983
33.83995
33.3434
34.23507
35.05032
35.75494
35.4387
34.65097
33.77072
33.26622
34.1424
34.9304
35.61768
35.3095
34.54657
33.69103
33.18201
34.0456
34.81575
35.48529
35.17969
34.44267
33.6022
33.0929
33.94644
34.70585
35.35946
35.06386
34.34022
33.50845
33.00043
33.84405
34.59573
35.23633
34.94541
34.23651
33.41069
32.9059
33.73534
34.48192
35.10912
35.29707
34.82912
34.12751
33.31004
32.81051
33.60911
34.35231
34.95547
35.20571
34.68271
34.00048
33.20409
33.43817
34.21802
34.8597
35.13385
34.55259
33.85924
33.05342
33.32621
34.10734
34.7781
35.05948
34.44713
33.74327
32.92658
33.20322
33.99512
34.67677
34.96353
34.33738
33.62096
32.80164
33.07625
33.87074
34.5666
35.04316
34.81921
34.2198
33.48388
32.67884
32.91184
33.72591
34.40993
34.9858
34.72366
34.08288
33.28581
32.56078
32.84
33.59344
34.24742
34.84987
34.55823
33.93726
33.21433
32.53328
33.25035
33.95996
34.53579
34.8332
34.2606
33.63337
32.89294
32.885
33.62
34.23657
34.83083
34.55146
33.94137
33.24131
32.49026
32.47344
33.22781
33.92169
34.59024
34.27402
33.60243
32.8739
32.83609
33.54852
34.27446
34.765
33.86177
33.1909
32.44393
32.4037
33.14245
33.98547
34.47475
33.49938
32.76218
32.63293
33.56252
34.55371
34.07311
33.02996
33.10961
34.12949
34.62193
33.6411
32.43697
32.49189
33.73829
34.63696
34.19897
33.20999
33.29187
34.18414
34.63172
33.81798
32.53947
32.57706
33.72764
34.58624
34.15934
33.2767
33.20565
34.04075
34.47722
33.66697
32.53114
32.39184
33.50262
34.23116
34.6012
33.92572
33.07468
32.83571
33.67864
34.26517
34.58134
33.99828
33.3109
32.26079
32.98877
33.68958
34.19868
34.6578
34.42006
33.99901
33.35595
32.46901
32.96097
33.54296
33.95871
34.28708
34.37046
34.3713
34.34107
34.16996
33.79426
33.27375
32.49973
32.72803
33.17628
33.53695
33.69981
33.70977
33.64565
33.42336
33.03189
32.37435
32.31328
32.66494
32.89784
32.91978
32.79742
32.55464
33.41125
34.32592
35.30374
36.35422
35.8391
34.80652
33.83468
33.39113
34.30302
35.24273
36.17331
35.73385
34.76935
33.81928
33.35045
34.2529
35.13682
35.96251
35.57808
34.69916
33.77923
33.29324
34.18354
35.01847
35.75542
35.41807
34.61121
33.71987
33.22298
34.10172
34.90521
35.61821
35.29791
34.51587
33.64651
33.14248
34.0111
34.79425
35.48586
35.17048
34.41616
33.56317
33.05495
33.91317
34.68299
35.36003
35.05447
34.31255
33.47218
32.96278
33.80603
34.56764
35.23681
34.93093
34.2023
33.37529
32.87122
33.68131
34.4448
35.10953
34.81746
34.07963
33.27013
33.50796
34.30795
34.95593
35.20178
34.6531
33.94066
33.1237
33.39501
34.19032
34.86019
35.13183
34.53613
33.82085
32.99506
33.28008
34.08319
34.77854
35.05856
34.43136
33.70683
32.87318
33.16617
33.97229
34.6773
34.96381
34.3224
33.58933
32.76014
33.04506
33.84645
34.56772
35.04953
34.83004
34.20288
33.45502
32.64633
32.87244
33.7045
34.41255
34.98662
34.73272
34.06894
33.26223
32.81004
33.56367
34.25126
34.84186
34.56586
33.92282
33.19067
33.24553
33.95995
34.55839
34.84106
34.26938
33.6273
32.85196
32.86648
33.61985
34.25849
34.80369
34.54715
33.94959
33.23498
32.4825
32.46342
33.2285
33.95407
34.51903
34.8116
34.28595
33.61545
32.86436
32.83652
33.57359
34.17532
34.7745
34.48805
33.88783
33.20196
32.43614
32.40392
33.15266
33.83325
34.49568
34.18109
33.51148
32.78336
32.6983
33.44345
34.14358
34.67258
33.75629
33.08912
32.91458
33.7447
34.66449
34.21037
33.2535
32.4924
33.32721
34.32522
33.86353
32.60181
32.64672
33.87185
34.33292
33.37376
33.38125
34.32435
33.86787
32.68727
32.69235
33.82701
34.61887
34.19149
33.3534
33.25092
34.10649
34.52119
33.69932
32.62686
32.41713
33.5802
34.24482
34.58081
33.94906
33.1001
32.76088
33.67435
34.28004
34.60063
33.99477
33.30081
32.95847
33.67595
34.18818
34.55584
34.67838
34.38386
33.98214
33.33875
32.41056
32.90293
33.50195
33.90184
34.22794
34.36606
34.34607
34.3183
34.12384
33.73255
33.20879
32.44859
32.63694
33.09843
33.46436
33.65324
33.67625
33.5581
33.32412
32.88518
32.32795
32.53629
32.77884
32.80276
32.67961
32.38455
33.3489
34.27483
35.23444
36.32732
35.79271
34.74095
33.79305
33.32563
34.25003
35.17969
36.14725
35.69442
34.70686
33.77369
33.27802
34.19769
35.08248
35.92656
35.54101
34.63996
33.7273
33.20443
34.12723
34.97215
35.71399
35.38034
34.55619
33.6611
33.10382
34.04558
34.86526
35.59776
35.26805
34.46553
33.58064
33.0146
33.95209
34.75638
35.46642
35.14009
34.36818
33.48589
32.93501
33.84601
34.64356
35.33515
35.00871
34.26364
33.37608
33.71306
34.52185
35.16538
34.86887
34.14639
33.26963
33.56902
34.39537
35.02465
35.28096
34.72194
34.01861
33.12458
33.44334
34.27597
34.92474
35.20335
34.6021
33.89447
33.00425
33.32635
34.15105
34.83776
35.12593
34.49663
33.76805
32.8857
33.21183
34.0364
34.74298
35.03655
34.39233
33.64803
32.75757
33.08107
33.92293
34.63939
34.91227
34.28491
33.52126
32.64768
32.93209
33.79426
34.48997
35.04375
34.787
34.16507
33.34427
32.76012
33.6724
34.37348
34.98724
34.70919
34.05223
33.20837
32.70638
33.52276
34.22285
34.85233
34.54881
33.89198
33.11898
33.20723
33.94533
34.53591
34.82152
34.24736
33.59117
32.7704
32.78646
33.6058
34.23647
34.80383
34.52069
33.94316
33.2148
33.20235
33.92159
34.51931
34.82607
34.21874
33.59048
32.79537
32.78206
33.54838
34.1757
34.74703
34.46021
33.88251
33.17904
33.14249
33.83319
34.40136
34.69592
34.11896
33.50929
32.73078
32.63311
33.44405
34.03273
34.66993
34.34545
33.76204
33.08256
32.91445
33.59666
34.24991
34.71562
33.88755
33.26307
32.47056
33.12355
33.91803
34.38711
33.46843
32.69061
32.45478
33.46165
34.40851
33.93106
32.87777
32.80547
33.96891
34.42274
33.46294
33.45214
34.36781
33.94715
32.77543
32.73861
33.84868
34.6046
34.21709
33.41175
33.22701
34.08719
34.54511
33.69686
32.58538
32.3411
33.51039
34.23618
34.58353
33.92945
33.08663
32.66579
33.63507
34.2525
34.67135
34.53503
33.97889
33.22124
32.81128
33.62055
34.1224
34.48461
34.70179
34.62355
34.29994
33.86915
33.25651
32.25664
32.69953
33.34473
33.81623
34.06839
34.29286
34.29712
34.23922
33.95684
33.61367
33.09322
32.26184
32.36289
32.9422
33.24336
33.48862
33.49827
33.42752
33.13655
32.68487
32.34389
32.50856
32.55598
32.45097
33.36549
34.43092
35.40924
36.29182
35.86964
34.89764
33.91661
33.33753
34.39819
35.34357
36.11774
35.76112
34.85417
33.89189
33.28849
34.32566
35.22719
35.90072
35.59893
34.76868
33.83713
33.2286
34.21037
35.09727
35.69449
35.43434
34.6573
33.75951
33.15809
34.09093
34.97118
35.57919
35.3218
34.54443
33.62915
33.06459
33.97573
34.86578
35.45151
35.19564
34.4341
33.51779
32.98557
33.86971
34.74943
35.3425
35.07994
34.32036
33.38653
33.77036
34.62847
35.21506
34.94926
34.21257
33.27652
33.6606
34.48656
35.11468
34.80668
34.09638
33.15891
33.5405
34.34603
34.99203
35.19244
34.69341
33.9716
33.03966
33.42382
34.22396
34.86902
35.08436
34.58953
33.8445
32.92169
33.30273
34.10423
34.78992
35.0239
34.4843
33.69315
32.82194
33.12289
33.99373
34.69879
34.94977
34.38546
33.58669
32.72586
32.97526
33.88485
34.57148
34.85462
34.28555
33.45785
32.81192
33.75313
34.47372
34.98009
34.76634
34.12732
33.31568
32.74764
33.57564
34.29857
34.83469
34.60443
33.95484
33.18879
33.3134
34.02799
34.62611
34.86673
34.33908
33.68874
32.8415
32.89865
33.72839
34.34279
34.83084
34.61546
34.08043
33.37309
32.4907
33.39369
34.06234
34.59021
34.81722
34.32585
33.72694
32.92705
32.92778
33.69988
34.27432
34.77447
34.54671
34.03016
33.37793
32.49745
32.46704
33.33648
33.98528
34.49563
34.72945
34.2268
33.65896
32.88749
32.80623
33.56239
34.14349
34.66987
34.42077
33.91996
33.26426
33.10957
33.74467
34.24986
34.53331
34.01957
33.45551
32.64356
32.49191
33.32719
33.918
34.47819
34.14434
33.58167
32.90182
32.64665
33.46168
34.0837
34.57044
33.80425
33.10407
32.8084
33.7143
34.57131
34.09636
33.25616
33.19443
34.09116
34.56334
33.69717
32.463
33.66536
34.49932
34.04031
33.07349
32.96602
33.92804
34.39329
33.62096
33.38903
34.17221
34.5297
33.83764
32.78915
32.50004
33.65697
34.28228
34.58557
33.94217
33.26806
32.73322
33.68774
34.28077
34.5423
33.97264
33.34878
32.84879
33.57525
34.08978
34.4525
34.67871
34.56888
34.32
33.87787
33.3408
32.33226
32.61371
33.4184
33.85398
34.11786
34.21153
34.22201
34.21168
33.99358
33.5939
33.07869
32.3882
32.90919
33.28704
33.40857
33.46887
33.39424
33.15124
32.70951
32.3949
32.62567
32.5956
32.55369
33.65857
34.76088
36.08334
35.40648
34.15261
33.18953
33.63614
34.72369
35.94127
35.33557
34.13258
33.16479
33.59029
34.65233
35.74243
35.21242
34.0828
33.11948
33.52696
34.5643
35.54991
35.08418
34.01437
33.05938
33.45284
34.47266
35.39131
35.64827
34.97539
33.93667
32.9909
33.37142
34.37912
35.22212
35.51127
34.85373
33.85503
32.92375
33.26773
34.28431
35.09314
35.39432
34.73745
33.77488
32.87106
33.18315
34.18315
34.96636
35.2675
34.61837
33.68998
33.07533
34.07284
34.85167
35.16055
34.50215
33.59023
32.96061
33.93734
34.69707
35.04407
34.35322
33.4787
32.85071
33.75555
34.59198
34.97067
34.19969
33.34647
32.73294
33.63755
34.4924
34.86616
34.08503
33.18402
32.62494
33.51441
34.38765
35.0044
34.72786
33.97682
33.04995
33.39756
34.2801
34.90519
34.61508
33.86125
32.90346
33.27662
34.13549
34.83902
34.48611
33.71509
32.75949
33.112
33.95696
34.6495
34.92675
34.31419
33.56076
32.69405
32.80904
33.64628
34.36484
34.71546
34.0747
33.28163
32.4346
33.35101
34.1266
34.72259
34.45052
33.74935
32.87014
32.92805
33.79148
34.47683
34.74844
34.12151
33.42292
32.48553
32.5141
33.42968
34.1039
34.70502
34.43552
33.78385
32.95496
32.93883
33.75242
34.36661
34.65941
34.05925
33.40678
32.50046
32.45748
33.35068
33.99613
34.55348
34.25002
33.68976
32.88775
32.76637
33.52998
34.12961
34.66456
34.43924
33.89998
33.22428
32.35633
33.08464
33.73871
34.32545
34.58659
34.02178
33.42338
32.6244
32.41767
33.29175
33.87143
34.4081
34.66183
34.10199
33.57249
32.84221
32.57673
33.3808
33.96851
34.5711
34.24605
33.68119
32.9806
32.6921
33.45195
34.09102
34.58603
33.80368
33.14607
32.73849
33.66529
34.53654
34.05334
33.18107
32.34474
32.96598
33.99719
34.48696
33.62325
33.55637
34.34259
33.90667
32.80303
32.59977
33.71191
34.56646
34.1332
33.30303
33.0855
33.92395
34.59973
34.30761
33.60869
32.37254
33.24671
33.96057
34.59756
34.33481
33.65072
32.6648
32.19308
33.30567
33.93333
34.43969
34.63908
34.17838
33.67312
32.75019
32.26934
33.12219
33.70051
34.10113
34.4339
34.51387
34.5317
34.49816
34.25534
33.93254
33.42666
32.75541
32.85316
33.34148
33.69771
33.83269
33.85835
33.79786
33.56028
33.14681
32.44501
32.31325
32.85982
33.20028
33.40514
33.45017
33.35524
33.06974
32.61551
32.3468
32.73902
32.94385
32.97396
32.85004
32.55674
32.25331
32.49056
32.48328
32.41162
34.06542
35.32838
36.35742
35.86893
34.69406
33.50002
34.04227
35.26406
36.16753
35.75768
34.65887
33.46169
33.98806
35.1476
35.93716
35.59546
34.58908
33.39433
33.91127
35.01534
35.71453
35.41001
34.49606
33.31717
33.81972
34.88847
35.58534
35.27557
34.38891
33.23173
33.7185
34.75847
35.43719
35.08833
34.27316
33.14298
33.60464
34.55748
35.3151
34.94447
34.13207
33.05035
33.47723
34.40895
35.20303
34.82705
33.98111
32.95007
33.347
34.28123
35.12097
34.72362
33.82826
32.84329
33.21183
34.16212
35.02717
34.61841
33.65297
32.74256
33.05014
34.06333
34.91341
34.52625
33.54916
32.63244
32.92503
33.96459
34.77615
35.03509
34.41701
33.45003
32.8099
33.8537
34.61919
34.93664
34.30505
33.34574
32.6899
33.69807
34.51585
34.85786
34.12786
33.21593
32.5583
33.48715
34.43298
34.80908
33.99238
33.05587
32.51542
33.39268
34.25886
34.89082
34.62627
33.85639
32.88318
33.12197
33.96388
34.69219
34.33058
33.52811
32.63994
32.71782
33.6729
34.37996
34.71769
34.07667
33.23232
32.33273
33.29561
34.0948
34.71328
34.44881
33.71015
32.7642
32.8046
33.73708
34.44786
34.71391
34.07918
33.33134
32.3647
32.36211
33.32349
34.06208
34.68224
34.4095
33.72142
32.80387
32.76883
33.67854
34.31735
34.65986
34.01972
33.28539
32.32954
32.26976
33.19801
33.93272
34.55232
34.1843
33.58413