/*--------------------------------*- C++ -*----------------------------------*\
| =========                 |                                                 |
| \\      /  F ield         | OpenFOAM: The Open Source CFD Toolbox           |
|  \\    /   O peration     | Version:  5.x                                   |
|   \\  /    A nd           | Web:      www.OpenFOAM.org                      |
|    \\/     M anipulation  |                                                 |
\*---------------------------------------------------------------------------*/
FoamFile
{
    version     2.0;
    format      ascii;
    class       volScalarField;
    location    "20/tissue";
    object      T;
}
// * * * * * * * * * * * * * * * * * * * * * * * * * * * * * * * * * * * * * //

dimensions      [0 0 0 1 0 0 0];

internalField   nonuniform List<scalar> 
87936
(
32.90006
33.19794
33.21647
33.14975
32.89028
33.17981
33.19885
33.13067
32.87641
33.14253
33.16119
33.092
32.87442
33.0933
33.11056
33.03934
33.03259
33.05153
32.86023
32.96709
32.99101
32.78129
32.89796
32.93628
32.73238
32.73173
32.89294
32.72579
33.34907
33.83229
34.21651
34.53006
34.58648
34.39774
34.09017
33.42412
33.02455
33.32419
33.79218
34.18627
34.49167
34.54848
34.36025
34.05711
33.41031
33.04684
33.16791
33.68572
34.12659
34.4141
34.47168
34.28255
33.98547
33.38057
33.04081
33.53289
34.05617
34.31255
34.37151
34.18223
33.88744
33.38114
32.95287
33.41083
33.9778
34.19777
34.25916
34.07868
33.78245
33.32832
32.87359
33.3064
33.8738
34.07633
34.14196
33.96772
33.67418
33.25289
32.79931
33.21307
33.75333
33.94921
34.01835
33.86108
33.55664
33.16815
32.72741
33.12807
33.62366
33.82356
33.87673
33.75035
33.42189
33.07052
32.66217
33.06096
33.48779
33.69114
33.72783
33.61682
33.22789
32.9524
33.02937
33.35375
33.56379
33.60181
33.48482
33.10378
32.76162
32.93335
33.20401
33.44125
33.47931
33.35673
32.99847
32.63267
32.81512
33.04207
33.32546
33.36559
33.22366
32.94816
32.53173
32.69823
32.93106
33.20638
33.2546
33.03777
32.84844
32.46947
32.50225
32.85773
33.06246
33.12948
32.91011
32.73745
32.40278
32.71557
32.87363
32.91699
32.79993
32.60725
32.65535
32.77458
32.80094
32.7304
32.43025
32.44872
32.56635
32.35339
33.64804
34.51344
35.16464
35.81401
36.07941
36.09
35.91911
35.44369
34.88415
34.16403
33.27804
33.62323
34.46657
35.10501
35.70608
35.94333
35.952
35.80763
35.37334
34.83497
34.14489
33.25859
33.57296
34.39484
34.99778
35.53562
35.74421
35.75255
35.62494
35.24889
34.75102
34.10519
33.22351
33.50814
34.30159
34.87774
35.37904
35.53847
35.54966
35.47334
35.11022
34.65581
34.03167
33.17262
33.43518
34.20109
34.75847
35.16506
35.3938
35.42729
35.33802
34.97441
34.55145
33.94045
33.10895
33.35769
34.0969
34.64359
35.01087
35.23688
35.26639
35.18672
34.83889
34.44119
33.83758
33.03557
33.27798
33.98203
34.52154
34.86976
35.09988
35.10432
35.00626
34.70455
34.30478
33.70878
32.94803
33.19716
33.85772
34.40097
34.73995
34.93171
34.95351
34.85137
34.57851
34.1633
33.5019
32.82607
33.14498
33.74478
34.28463
34.61693
34.79309
34.81031
34.72764
34.46138
34.02237
33.3698
32.73075
33.05132
33.64853
34.16928
34.49518
34.6865
34.70632
34.61306
34.3527
33.89751
33.24257
32.66846
32.8879
33.53863
34.03925
34.37408
34.57878
34.6045
34.49635
34.23771
33.77754
33.13388
32.75596
33.37833
33.90139
34.26257
34.46267
34.49553
34.37626
34.12226
33.65025
33.03989
32.61958
33.18986
33.75864
34.14424
34.33455
34.37221
34.25278
33.9832
33.52786
32.97561
32.54062
33.04632
33.62989
34.00561
34.20486
34.23975
34.12661
33.83484
33.40877
32.88112
32.91485
33.49887
33.85577
34.06405
34.09481
33.98114
33.68667
33.24183
32.68358
32.8867
33.33087
33.66893
33.87515
33.90502
33.79169
33.52713
33.04357
32.54113
32.49393
32.94505
33.385
33.55116
33.57356
33.47906
33.2173
32.8355
32.69339
32.95358
33.20655
33.24316
33.12509
32.81494
32.38271
32.27536
32.64618
32.74846
32.78293
32.77461
32.53881
32.40543
32.4428
32.29923
33.19722
34.12008
35.02205
35.91967
36.33148
35.63427
34.50503
33.58394
33.18114
34.05182
34.97461
35.81312
36.14223
35.55728
34.46456
33.57604
33.13809
33.93489
34.88602
35.63885
35.92079
35.43715
34.38813
33.57415
33.83116
34.77995
35.46773
35.73935
35.28701
34.29679
33.45195
33.73035
34.67173
35.35432
35.60851
35.15744
34.20279
33.33968
33.6299
34.56241
35.21061
35.53692
35.39719
35.00659
34.10835
33.23464
33.52934
34.44845
35.10149
35.4208
35.25708
34.81868
34.00939
33.1379
33.43275
34.33783
34.99049
35.32526
35.13955
34.65561
33.91118
33.04712
33.33549
34.22729
34.88499
35.23793
35.0427
34.53268
33.81155
32.95393
33.23627
34.09976
34.76921
35.07676
35.21641
34.93402
34.41778
33.69992
32.8568
33.14194
33.9531
34.65126
34.97485
35.12823
34.84979
34.29622
33.5576
32.75545
33.07902
33.82032
34.46209
34.89682
35.12894
35.02407
34.75862
34.17568
33.40244
32.66714
32.93033
33.69544
34.32864
34.79216
34.99421
35.07456
34.91628
34.64243
34.05807
33.26741
32.80205
33.56909
34.20829
34.71216
34.91767
35.05228
34.96352
34.83027
34.48602
33.92829
33.13933
32.665
33.41758
34.07971
34.61039
34.85105
34.93745
34.93637
34.91157
34.74549
34.33091
33.77899
33.01771
32.57165
33.229
33.91512
34.38984
34.67811
34.81168
34.79554
34.78037
34.60045
34.1566
33.60182
32.97534
32.93177
33.58213
34.06009
34.47041
34.61017
34.60912
34.57285
34.26934
33.86187
33.23713
32.58903
32.58676
33.17849
33.70917
34.06632
34.22973
34.24685
34.16536
33.92613
33.50656
32.90702
32.82319
33.32478
33.68895
33.85813
33.87802
33.79912
33.52119
33.07598
32.53199
32.3925
32.87824
33.27575
33.44496
33.47961
33.38137
33.04414
32.73444
32.40295
32.77519
32.95427
33.06639
32.88826
32.68427
32.3255
32.56563
32.62286
32.45433
34.21972
35.54863
36.35357
35.90545
34.86658
33.5852
34.14466
35.4646
36.16438
35.79754
34.80851
33.55962
34.03036
35.31813
35.94263
35.62233
34.70736
33.51871
33.95915
35.15821
35.73393
35.44617
34.59885
33.44877
33.87514
35.01107
35.61434
35.32022
34.48278
33.36385
33.77764
34.82127
35.44662
35.17378
34.35706
33.27894
33.67841
34.65872
35.33637
35.05833
34.23679
33.1934
33.57696
34.53452
35.24389
34.9511
34.11835
33.10435
33.46585
34.42109
35.15249
34.85332
33.98983
33.00661
33.3581
34.31416
35.00822
35.21365
34.75401
33.87129
32.91182
33.25764
34.20486
34.88508
35.1058
34.64513
33.75258
32.82774
33.16104
34.08081
34.80925
35.05725
34.53078
33.60346
32.73864
33.00691
33.95844
34.69941
34.95245
34.34992
33.45096
32.88852
33.83343
34.60832
35.0199
34.83601
34.21976
33.33293
32.75797
33.68254
34.49743
34.9625
34.73966
34.09131
33.19671
32.65358
33.44897
34.27908
34.78289
34.9874
34.60426
33.91448
33.08368
33.18493
33.97802
34.58086
34.93174
34.73528
34.34526
33.60141
32.78981
32.94007
33.64232
34.30705
34.63217
34.93491
34.798
34.49388
33.96606
33.22726
32.47084
32.50808
33.22813
33.88378
34.35878
34.59997
34.74281
34.70239
34.70601
34.52168
34.12483
33.59687
32.88808
32.83945
33.46833
33.93612
34.25631
34.47678
34.48715
34.419
34.10891
33.73533
33.1522
32.46918
32.42277
33.01481
33.54641
33.84345
34.02197
34.05066
33.95366
33.69387
33.33467
32.82179
32.53586
33.02147
33.36598
33.53685
33.58694
33.48311
33.24379
32.82874
32.5393
32.81686
32.96833
33.08431
32.93077
32.75064
32.34318
32.30356
32.4708
32.52627
32.4386
34.0806
35.50716
36.16038
34.74223
33.4793
34.05793
35.43298
36.0055
34.71197
33.45482
34.00575
35.32074
35.81226
34.65654
33.40817
33.93358
35.18861
35.63844
34.57988
33.34401
33.84911
35.081
35.50881
34.48925
33.26876
33.75819
34.95818
35.36817
34.39156
33.19014
33.65696
34.83765
35.21949
34.28525
33.11064
33.54092
34.72131
35.30479
35.04343
34.15899
33.00953
33.42037
34.50595
35.20027
34.91826
34.0041
32.91076
33.30556
34.35989
35.11123
34.80982
33.85836
32.83074
33.14711
34.22759
35.02823
34.70209
33.68863
33.03971
34.10237
34.97347
34.61035
33.52772
32.93904
34.00108
34.87551
34.51589
33.43275
32.83779
33.90299
34.73165
34.97728
34.41734
33.33489
32.72623
33.74842
34.63469
34.91108
34.22918
33.21242
32.58154
33.49705
34.48432
34.80095
34.0493
33.09484
33.25218
34.26094
34.84568
34.55458
33.78803
32.81192
32.85797
33.86254
34.54885
34.82199
34.27735
33.36544
32.55403
33.42618
34.26719
34.72352
34.88606
34.52366
33.8645
33.04637
33.06092
33.8252
34.43259
34.82048
34.617
34.21433
33.4992
32.66283
32.61055
33.32782
34.01351
34.4594
34.68431
34.79782
34.79134
34.77039
34.58044
34.30467
33.74016
33.03921
32.92113
33.54283
34.02853
34.35266
34.48425
34.49104
34.45163
34.17267
33.81405
33.24077
32.53426
32.41874
33.00775
33.50901
33.83652
33.98868
34.00772
33.9445
33.67907
33.21925
32.78803
32.4494
32.96966
33.30284
33.46467
33.48539
33.40311
33.11037
32.78316
32.38262
32.75646
32.86763
32.89042
32.79361
32.56907
32.30881
32.39361
33.69926
35.41258
36.06017
34.52239
33.67679
35.34945
35.92652
34.49152
33.63366
35.23246
35.7411
34.42871
33.57489
35.10087
35.5716
34.34339
33.50689
34.97351
35.44329
34.24054
33.43319
34.84007
35.29014
34.11092
33.34152
34.60184
35.12799
33.89371
33.2681
34.44864
35.28909
34.96439
33.78348
33.17389
34.32137
35.20149
34.86043
33.67617
33.07538
34.20311
35.11035
34.75537
33.59374
32.98443
34.11445
35.01466
34.65373
33.52218
32.88671
34.02614
34.95999
34.57315
33.42859
32.79309
33.92504
34.86694
34.48018
33.32172
33.76395
34.71377
34.99941
34.36706
33.1497
33.5233
34.61177
34.92266
34.15827
33.00711
33.4088
34.45579
34.80874
33.98406
32.92403
33.17402
34.22761
34.89104
34.57652
33.7334
32.61574
32.83336
33.85795
34.70466
34.34105
33.3605
32.46571
33.45494
34.38858
34.71121
33.96071
33.01839
33.09905
33.99737
34.61543
34.85644
34.37177
33.58143
32.63122
32.66354
33.57569
34.3124
34.8159
34.56057
33.98009
33.14326
33.10638
33.88061
34.46577
34.8322
34.63902
34.23679
33.54859
32.67755
32.57429
33.33599
34.00032
34.44457
34.653
34.77974
34.77569
34.76167
34.53816
34.2662
33.73253
33.03377
32.83559
33.50116
33.9565
34.27621
34.42915
34.43154
34.39644
34.08796
33.75211
33.16547
32.45703
32.88598
33.37471
33.6671
33.86587
33.9012
33.78492
33.53083
33.12094
32.53114
32.76957
33.03274
33.25245
33.29082
33.11922
32.89095
32.44458
32.38572
32.58211
32.6459
32.51553
33.49629
34.77399
36.26728
35.58052
34.0947
33.47035
34.73819
36.10696
35.5041
34.07278
33.42467
34.66813
35.90076
35.37616
34.02276
33.36873
34.58388
35.69923
35.2335
33.95601
33.3026
34.50076
35.57668
35.12683
33.87884
33.2176
34.41651
35.43487
35.00808
33.78351
33.14892
34.33099
35.32963
34.91294
33.67923
34.23726
35.22184
34.814
33.53324
34.13245
35.14279
34.72382
33.42718
33.99212
35.04526
34.61412
33.32185
33.77419
34.94574
34.49533
33.20546
33.65693
34.82248
34.33216
33.11282
33.54027
34.6707
35.02128
34.16242
33.00957
33.44555
34.57947
34.94086
34.04636
32.89329
33.3456
34.49509
34.89309
33.95228
32.77697
33.1753
34.34855
34.74698
33.80565
32.91318
34.01875
34.85056
34.50058
33.45578
32.57087
33.73402
34.67372
34.27194
33.17226
33.34048
34.34831
34.71125
33.89347
32.81793
32.91703
33.93511
34.72975
34.39283
33.45372
32.51223
33.46954
34.39893
34.72333
34.07967
33.07799
33.0595
33.9666
34.67461
34.35007
33.56129
32.60344
32.52439
33.43133
34.23869
34.77701
34.49893
33.87417
33.05335
32.98028
33.73676
34.31946
34.71433
34.79406
34.51667
34.02466
33.33491
32.51289
32.40607
33.16009
33.77462
34.27971
34.49627
34.61975
34.65853
34.57451
34.37477
34.01476
33.50902
32.8182
32.51245
33.16201
33.66415
33.96833
34.11439
34.13172
34.06939
33.8396
33.4592
32.88962
32.47733
33.009
33.33108
33.47912
33.5156
33.42414
33.14614
32.78091
32.33923
32.65304
32.79968
32.82867
32.76585
32.52088
33.38413
34.46835
36.06124
35.37815
33.73266
33.36288
34.43539
35.93213
35.31499
33.71266
33.32052
34.36066
35.74851
35.19625
33.66622
33.25836
34.2337
35.54996
35.03739
33.60482
33.17408
34.09566
35.41083
34.90683
33.51637
33.09055
33.97542
35.25312
34.67801
33.42448
33.01162
33.88005
35.13221
34.51853
33.32002
33.79761
35.01832
34.40901
33.19474
33.7023
34.90959
34.30739
33.08576
33.59737
34.76793
35.16058
34.20504
32.98338
33.49464
34.66135
35.05001
34.1053
32.88692
33.39578
34.58
34.98847
33.99024
32.79722
33.23488
34.47834
34.90189
33.78841
33.11885
34.3743
34.81971
33.66435
32.98152
34.20851
34.72105
33.53222
32.85678
34.01233
34.9423
34.53419
33.43538
33.67234
34.73566
34.30222
33.10587
33.38633
34.45832
34.83737
33.9709
32.81784
33.03493
34.1954
34.61487
33.59937
32.67714
33.8133
34.66758
34.28681
33.28088
33.37635
34.31454
34.69203
33.89212
32.84676
32.88745
33.89012
34.684
34.32127
33.41671
32.42306
33.4064
34.29415
34.63376
33.88379
32.98425
32.9606
33.82834
34.47451
34.76184
34.20978
33.37224
32.42134
33.24319
33.97553
34.51634
34.77285
34.30022
33.6581
32.76833
32.61251
33.35656
34.00682
34.45856
34.69824
34.78817
34.78293
34.76001
34.5907
34.28102
33.7382
33.05597
32.79577
33.44324
33.88661
34.14686
34.36157
34.37174
34.30335
34.0357
33.64465
33.11616
32.40777
32.77631
33.14684
33.52569
33.70607
33.71973
33.63897
33.39445
32.98094
32.41042
32.42192
32.77118
32.91739
32.93033
32.87747
32.68046
33.42867
34.25561
35.45263
36.2116
34.69538
33.78701
33.41132
34.23213
35.38979
36.05982
34.66324
33.77057
33.37584
34.18365
35.2766
35.85982
34.59898
33.73143
33.32437
34.12066
35.14844
35.66844
34.52086
33.67622
33.26039
34.04999
35.03398
35.53687
34.4386
33.60959
33.18667
33.96701
34.92706
35.42267
34.3421
33.53298
33.10591
33.86901
34.81569
35.32369
34.22476
33.45062
33.01791
33.73408
34.6935
35.18833
34.10838
33.36149
32.92424
33.5761
34.54055
35.05643
33.98261
33.25107
33.45604
34.39372
34.95273
33.86057
33.12957
33.34444
34.2733
34.84372
33.74339
33.01914
33.24073
34.15192
34.75329
33.62458
32.91174
33.13736
34.04384
35.01514
34.61777
33.44329
32.80439
33.01897
33.94594
34.93163
34.52837
33.32964
32.70564
32.87042
33.81716
34.85992
34.4272
33.19289
32.73482
33.62523
34.7197
34.25997
33.08552
33.36908
34.44933
34.85854
33.91943
32.76627
33.03795
34.24001
34.69503
33.57873
32.671
33.87244
34.76726
34.36759
33.29533
33.48676
34.52914
34.0828
32.89982
33.05171
34.1745
34.60386
33.60489
32.62634
33.76494
34.63452
34.23908
33.22851
33.26228
34.24134
34.62161
33.77794
32.71699
32.73525
33.75556
34.48721
34.78955
34.16831
33.25237
33.22007
34.09513
34.72925
34.39006
33.66222
32.69648
32.57506
33.43396
34.20626
34.74522
34.46611
33.84248
33.07345
32.89483
33.60633
34.23016
34.58923
34.80345
34.72838
34.4373
33.92142
33.24953
32.40682
32.97383
33.57252
34.00234
34.33858
34.46991
34.44653
34.43757
34.23897
33.84644
33.24985
32.56841
32.83276
33.24249
33.62441
33.75617
33.7567
33.7226
33.49792
33.09491
32.51768
32.59474
32.85887
32.9737
32.99518
32.92971
32.72799
32.37097
33.48405
34.31357
35.24171
36.24657
35.80178
34.77448
33.81912
33.15092
33.4728
34.29366
35.19094
36.09345
35.71144
34.74293
33.81286
33.14995
33.43381
34.24878
35.0997
35.8961
35.56858
34.68003
33.78295
33.37277
34.18442
34.99531
35.70814
35.41731
34.59963
33.72907
33.30181
34.10714
34.89326
35.59656
35.31203
34.51135
33.65885
33.2237
34.02111
34.78868
35.47048
35.19122
34.41707
33.57888
33.14042
33.9285
34.67969
35.36759
35.08682
34.31713
33.49237
33.05326
33.82847
34.55959
35.25554
34.97753
34.20677
33.40102
32.96373
33.71179
34.43261
35.15889
34.8643
34.07683
33.30775
32.87148
33.5239
34.31521
35.04496
34.74732
33.94173
33.21304
33.41805
34.18627
34.92166
34.52054
33.82572
33.08011
33.30713
34.07375
34.8489
34.39798
33.71624
32.97135
33.20196
33.9645
34.75355
34.28961
33.60832
32.86426
33.10022
33.83486
34.63762
35.04283
34.1769
33.46686
32.75985
32.96233
33.71496
34.55617
34.97061
34.06547
33.29666
32.64406
32.85442
33.55679
34.39031
34.8449
33.88242
33.18452
33.22444
34.09752
34.6092
33.58598
32.87991
32.87887
33.8026
34.78308
34.36524
33.22411
33.46239
34.54662
34.10229
32.8416
33.0626
34.22897
34.66639
33.64569
32.65947
33.84977
34.75717
34.33578
33.29864
33.41761
34.41697
34.77213
34.01646
32.81479
32.89859
34.05545
34.78111
34.42481
33.46022
33.46495
34.41033
34.75145
34.04868
32.93211
32.92901
34.02334
34.72282
34.3473
33.44279
33.38039
34.22171
34.77908
34.51041
33.80631
32.85355
32.75923
33.71092
34.35658
34.78455
34.58677
34.09698
33.23788
33.04758
33.76451
34.31763
34.68329
34.79502
34.51485
34.10044
33.39582
32.54706
33.0719
33.63158
34.07848
34.39243
34.49135
34.46996
34.45093
34.2769
33.89585
33.34807
32.64791
32.90388
33.43485
33.69515
33.82905
33.85956
33.77007
33.55629
33.14295
32.57128
32.65423
32.88556
33.01493
33.04383
32.95785
32.74575
32.37238
33.55576
34.433
35.30665
36.28712
35.83435
34.85193
34.02075
33.19202
33.54873
34.38661
35.2495
36.12509
35.74192
34.80783
33.986
33.17563
33.50611
34.314
35.15006
35.92201
35.59495
34.73159
33.86028
33.15696
33.42351
34.23287
35.03851
35.72585
35.43892
34.64121
33.78676
33.32966
34.1421
34.93008
35.6144
35.32938
34.54474
33.69424
33.24156
34.04971
34.8231
35.48526
35.20594
34.44676
33.6045
33.15537
33.9565
34.7158
35.36019
35.09157
34.34798
33.51529
33.06835
33.86108
34.60401
35.20361
35.40477
34.95965
34.24638
33.42457
32.98
33.76104
34.48301
35.07432
35.32264
34.79792
34.13739
33.3318
32.89141
33.64393
34.34176
34.98447
35.24204
34.66314
34.00352
33.239
32.79399
33.46124
34.22717
34.90281
35.14747
34.56425
33.87143
33.13972
33.35551
34.12496
34.81307
35.07907
34.46629
33.76375
33.01347
33.23822
34.01784
34.70686
34.97238
34.35891
33.65183
32.89293
33.12551
33.89341
34.54197
34.88703
34.22733
33.52661
32.78071
33.00428
33.74605
34.42883
35.02806
34.79862
34.09841
33.32761
32.65334
32.8925
33.59668
34.28587
34.9016
34.65633
33.951
33.22026
32.56187
33.26089
34.00305
34.70998
34.40282
33.6579
32.92138
32.9433
33.65793
34.43852
34.88082
33.98242
33.26967
32.56337
32.5637
33.25539
34.17712
34.64333
33.62092
32.93839
32.88786
33.79257
34.78957
34.34413
33.22065
32.53734
33.42396
34.4913
34.02999
32.79769
32.96573
34.12244
34.5713
33.5234
33.59131
34.62372
34.17529
33.03208
33.17074
34.18813
34.60376
33.74299
32.53527
32.5947
33.73837
34.56453
34.17634
33.23365
33.18271
34.11344
34.76674
34.44876
33.70089
32.59434
32.47995
33.48199
34.34736
34.70619
34.02545
33.09875
32.83245
33.76162
34.39926
34.70138
34.12639
33.34519
33.09004
33.79085
34.33609
34.75927
34.52636
34.11249
33.43239
32.60628
33.08784
33.64866
34.20118
34.43297
34.51773
34.56963
34.49691
34.3237
33.92176
33.36727
32.66063
32.8997
33.42393
33.69107
33.82078
33.83853
33.76532
33.5514
33.13703
32.56821
32.47993
32.83594
32.96482
32.98019
32.92268
32.69454
33.48411
34.43307
35.35213
36.30795
35.8667
34.8916
33.95777
33.47289
34.38666
35.29056
36.14363
35.76847
34.84321
33.86688
33.43402
34.31406
35.18332
35.94366
35.62749
34.75568
33.82126
33.37309
34.2333
35.06445
35.75273
35.47132
34.65839
33.755
33.30218
34.14283
34.94976
35.62382
35.3485
34.55611
33.6787
33.2241
34.05037
34.83977
35.49388
35.22221
34.45557
33.59503
33.1408
33.95691
34.73471
35.37775
35.11157
34.35726
33.50728
33.05361
33.86146
34.63027
35.26699
34.9982
34.25864
33.41596
32.96399
33.76144
34.52335
35.14288
35.3271
34.88313
34.15616
33.32216
32.87164
33.64425
34.39329
35.00931
35.23733
34.72666
34.03042
33.23071
33.46139
34.25367
34.91838
35.16745
34.59366
33.88532
33.10879
33.35565
34.14663
34.84497
35.1037
34.49415
33.77698
32.99493
33.23832
34.03898
34.74144
35.00481
34.38975
33.66327
32.88183
33.12561
33.9186
34.63597
35.08628
34.8714
34.27581
33.53705
32.77362
33.00441
33.76611
34.46176
35.03414
34.78486
34.12872
33.33612
32.64977
32.89253
33.62856
34.30615
34.91714
34.62776
33.98115
33.23012
32.56206
33.27518
34.01767
34.62136
34.90613
34.33238
33.67648
32.94239
32.95984
33.67555
34.3181
34.91352
34.6486
34.01192
33.28402
32.57486
32.57493
33.28469
34.00465
34.67963
34.38737
33.67254
32.96288
32.93552
33.61912
34.39745
34.84385
33.94562
33.25459
32.55351
32.51712
33.20862
34.12185
34.56263
33.57474
32.86998
32.77691
33.65081
34.65342
34.20157
33.13842
33.2369
34.24175
34.71308
33.7136
32.58077
32.68616
33.8326
34.73067
34.32914
33.29461
33.37112
34.30635
34.72129
33.94302
32.7139
32.73723
33.81899
34.67863
34.28856
33.35866
33.28013
34.16775
34.57932
33.76965
32.70201
32.55622
33.57654
34.36471
34.70971
34.05528
33.1773
32.9716
33.78463
34.39201
34.68769
34.13682
33.38557
32.43001
33.09942
33.7941
34.33479
34.75785
34.52988
34.12364
33.43636
32.6249
33.07894
33.63033
34.05047
34.3876
34.46649
34.45753
34.44627
34.26591
33.88771
33.353
32.65522
32.84631
33.2386
33.59889
33.7572
33.75931
33.7125
33.48923
33.10184
32.52702
32.41894
32.75946
32.92697
32.94144
32.86209
32.66425
33.4287
34.3136
35.3067
36.30799
35.85169
34.807
33.80914
33.41135
34.2937
35.24953
36.14369
35.7539
34.77167
33.79518
33.3759
34.24877
35.15003
35.94383
35.60683
34.70561
33.75902
33.32446
34.18433
35.03845
35.753
35.45602
34.62204
33.7047
33.26049
34.10702
34.93006
35.62412
35.34096
34.53061
33.63667
33.18673
34.02105
34.82314
35.49417
35.2165
34.43443
33.55884
33.10597
33.92846
34.71587
35.378
35.10468
34.33387
33.47426
33.01798
33.82847
34.60402
35.26717
34.98378
34.22649
33.38475
32.92437
33.71182
34.48305
35.14299
34.87206
34.10551
33.29415
33.52396
34.3418
35.00938
35.23518
34.69133
33.96317
33.17424
33.41809
34.2272
34.91847
35.15606
34.57907
33.84921
33.05686
33.30717
34.12499
34.84506
35.09757
34.48104
33.74286
32.94515
33.202
34.01787
34.74158
35.00352
34.3763
33.63469
32.84282
33.10026
33.89334
34.63629
35.09208
34.87652
34.25741
33.51238
32.7381
32.96242
33.74602
34.46248
35.02715
34.79313
34.1158
33.316
32.85451
33.59682
34.30672
34.89559
34.63055
33.96704
33.20732
33.261
34.01785
34.64773
34.90433
34.34007
33.66754
32.9086
32.94343
33.67573
34.34004
34.87914
34.64452
34.01853
33.2787
32.55434
32.56382
33.28516
34.04597
34.62726
34.90282
34.39796
33.68741
32.95486
32.93571
33.65426
34.27699
34.87809
34.61057
33.98132
33.26537
32.5461
32.51723
33.22925
33.93295
34.62651
34.31663
33.59717
32.89565
32.81717
33.53791
34.28215
34.76122
33.86291
33.16914
33.03387
33.85771
34.76708
34.34861
33.33667
32.63712
33.42587
34.43162
33.99407
32.77457
32.83607
33.99641
34.46389
33.46001
33.45472
34.43909
33.9946
32.83366
32.8361
33.94929
34.7137
34.32565
33.43536
33.34393
34.23474
34.62726
33.79788
32.7984
32.60996
33.69444
34.38125
34.69445
34.08692
33.18957
32.90067
33.78401
34.40443
34.71013
34.13618
33.38152
33.08083
33.78375
34.31905
34.65251
34.76845
34.49584
34.11261
33.42414
32.59096
33.03057
33.59181
34.00153
34.32931
34.47164
34.44193
34.42152
34.22517
33.82892
33.28873
32.61704
32.77474
33.16977
33.53031
33.72201
33.74262
33.62195
33.40122
32.99743
32.46571
32.64384
32.82884
32.85045
32.7577
32.47593
33.38413
34.25561
35.24172
36.28714
35.81433
34.73077
33.76188
33.36288
34.23213
35.19097
36.12512
35.72308
34.69877
33.74386
33.32051
34.18363
35.09975
35.92205
35.57928
34.6358
33.70188
33.25831
34.1206
34.99542
35.7259
35.42653
34.55749
33.64478
33.17402
34.04993
34.89335
35.61445
35.31848
34.47353
33.57841
33.09052
33.96698
34.78871
35.48531
35.19102
34.38249
33.49646
33.0116
33.86901
34.6797
35.36023
35.05961
34.28287
33.40538
33.73408
34.55959
35.20363
34.90331
34.16681
33.3069
33.57609
34.43261
35.07433
35.3105
34.75628
34.03824
33.18857
33.45603
34.31521
34.98449
35.23474
34.6417
33.91751
33.0793
33.34444
34.18627
34.90282
35.16244
34.54252
33.79415
32.97006
33.24074
34.07376
34.81308
35.08314
34.44465
33.68273
32.85646
33.13736
33.9645
34.70686
34.95797
34.34122
33.56736
32.75448
33.01897
33.83486
34.54196
35.08635
34.84842
34.21953
33.38278
32.87043
33.71496
34.42877
35.03424
34.77732
34.10633
33.25345
32.73482
33.55684
34.28581
34.91723
34.63491
33.93485
33.144
33.22447
34.00305
34.6214
34.8865
34.31848
33.62535
32.83645
32.87892
33.65792
34.31819
34.87926
34.61795
34.01461
33.24765
33.25543
34.00468
34.62738
34.92072
34.31073
33.65612
32.8929
32.88798
33.61918
34.27716
34.82732
34.57908
33.97238
33.24283
33.20875
33.93289
34.53188
34.80477
34.23184
33.58864
32.85052
32.77706
33.53811
34.15228
34.7735
34.47526
33.87062
33.1636
33.0339
33.69348
34.3904
34.80769
33.99964
33.3472
32.62468
33.21839
34.06473
34.50007
33.57603
32.8429
32.63166
33.57634
34.50288
34.06636
33.03669
32.99783
34.10755
34.5355
33.54409
33.5299
34.487
34.09327
32.93643
32.89345
33.98482
34.70376
34.33128
33.51248
33.3269
34.21136
34.64449
33.79719
32.7899
32.53148
33.59649
34.36304
34.69587
34.06825
33.21136
32.83106
33.75212
34.38195
34.78358
34.64001
34.12111
33.3237
32.98749
33.73847
34.2536
34.58868
34.80478
34.71143
34.42138
33.98593
33.36001
32.47512
32.86083
33.41703
33.90618
34.15315
34.3966
34.40238
34.33496
34.04093
33.70855
33.18469
32.46212
32.53959
33.02054
33.29459
33.5409
33.54651
33.48937
33.18326
32.83101
32.44605
32.62265
32.64492
32.58404
33.49659
34.46826
35.45251
36.24654
35.85004
34.92311
33.96543
33.47072
34.43515
35.38964
36.09342
35.75101
34.88061
33.94165
33.42506
34.36038
35.27643
35.89606
35.60225
34.79412
33.88875
33.36908
34.23361
35.14829
35.70811
35.4503
34.67881
33.81847
33.30279
34.09571
35.03389
35.59654
35.34906
34.56227
33.68806
33.21769
33.97544
34.92699
35.47046
35.22062
34.45335
33.58141
33.14895
33.88005
34.81566
35.36758
35.11424
34.34504
33.47256
33.79761
34.69349
35.25553
34.99619
34.24918
33.38553
33.7023
34.54054
35.15889
34.86709
34.14063
33.28569
33.59737
34.39371
35.04496
35.23693
34.76962
34.02057
33.18276
33.49465
34.2733
34.92166
35.12877
34.66801
33.89707
33.07751
33.3958
34.15192
34.8489
35.07256
34.56023
33.73229
32.98984
33.23491
34.04384
34.75355
34.99884
34.46742
33.6327
32.90712
33.11892
33.94592
34.6376
34.91189
34.36977
33.52051
32.98169
33.81704
34.55613
35.02806
34.82754
34.18979
33.39631
32.857
33.62525
34.39026
34.9016
34.67268
34.0096
33.27604
33.36914
34.09754
34.70998
34.94052
34.4373
33.7469
32.96237
33.03815
33.80251
34.43847
34.91355
34.70023
34.18631
33.44048
32.67133
33.46252
34.17711
34.67964
34.90443
34.43331
33.80763
33.05989
33.06302
33.79241
34.3974
34.87813
34.65436
34.15529
33.45348
32.68483
32.6602
33.42425
34.12186
34.62665
34.84491
34.36937
33.76224
33.03055
32.96641
33.65103
34.2822
34.77348
34.55106
34.05544
33.36379
33.23721
33.85765
34.39032
34.67801
34.16274
33.54813
32.82202
32.68622
33.42577
34.06457
34.62893
34.30463
33.67691
33.05018
32.836
33.57639
34.26467
34.71203
33.95988
33.2475
32.99891
33.85474
34.69749
34.25717
33.39669
33.33817
34.23593
34.67927
33.8191
32.68289
33.77891
34.60846
34.18316
33.1916
33.08413
34.0663
34.51525
33.74151
33.49703
34.32032
34.65666
33.96697
32.95636
32.6832
33.77043
34.40453
34.7028
34.06516
33.38071
32.86999
33.79393
34.41513
34.66332
34.1083
33.43505
32.99256
33.66094
34.22077
34.56241
34.78967
34.66782
34.44907
34.00668
33.44155
32.5208
32.80683
33.50337
33.97641
34.24198
34.32553
34.33143
34.33091
34.1218
33.67427
33.21998
32.57146
33.07778
33.3622
33.49123
33.55476
33.46454
33.25611
32.90437
32.57026
32.82576
32.75596
32.76113
33.69918
34.77394
36.0614
35.46662
34.12162
33.32238
33.67671
34.73813
35.93236
35.40013
34.1019
33.29849
33.63358
34.66807
35.74871
35.28271
34.05364
33.25694
33.57483
34.58384
35.55003
35.14796
33.98998
33.20111
33.50685
34.50074
35.41084
35.64356
35.04938
33.91993
33.13684
33.43317
34.4165
35.25311
35.50025
34.93353
33.84699
33.0722
33.34151
34.33098
35.13221
35.3847
34.82129
33.78161
33.0167
33.26809
34.23725
35.01832
35.27547
34.7058
33.71321
33.17388
34.13245
34.90958
35.17422
34.58907
33.62463
33.07537
33.99211
34.76793
35.08034
34.41695
33.52482
32.98443
33.77418
34.66135
34.98854
34.24409
33.41398
32.88671
33.65692
34.58
34.90825
34.13439
33.25797
32.79308
33.54026
34.47834
35.01516
34.78113
34.03419
33.14121
33.44555
34.3743
34.93167
34.67843
33.9253
33.02112
33.34559
34.2085
34.86
34.5602
33.77288
32.90571
33.1753
34.01233
34.71974
34.95999
34.40786
33.57853
32.80661
32.91318
33.67235
34.44935
34.7563
34.16666
33.32062
32.57088
33.38633
34.24002
34.78322
34.54101
33.81531
32.9678
33.03495
33.87247
34.54671
34.7944
34.23408
33.4722
32.64516
32.67718
33.48681
34.22905
34.78987
34.54881
33.87385
33.06429
33.0518
33.84995
34.49163
34.74803
34.19644
33.46879
32.66585
32.62649
33.41788
34.1232
34.65512
34.3759
33.78798
33.00758
32.89877
33.59198
34.25962
34.76477
34.54266
34.02407
33.29802
32.53446
33.1704
33.83282
34.42986
34.67734
34.1499
33.48479
32.75973
32.59451
33.37092
33.99604
34.50262
34.76276
34.22484
33.64643
32.96917
32.7371
33.45457
34.10742
34.69743
34.38215
33.78609
33.08848
32.83603
33.52985
34.23589
34.68749
33.94701
33.24289
32.89342
33.77889
34.60442
34.18379
33.28666
32.5302
33.08412
34.12375
34.60307
33.72012
33.64931
34.4541
34.02125
32.91892
32.75302
33.81317
34.65815
34.24286
33.38282
33.20616
34.05058
34.70876
34.41843
33.71223
32.55077
33.34184
34.0892
34.70972
34.45372
33.75034
32.82049
32.39218
33.40075
34.07853
34.55516
34.74692
34.31818
33.77871
32.89363
32.44733
33.2625
33.82526
34.25644
34.53713
34.60447
34.61949
34.59601
34.38031
34.08236
33.53391
32.92414
33.04099
33.43364
33.79219
33.92259
33.94873
33.89009
33.65844
33.26928
32.6813
32.60832
33.0197
33.29168
33.50767
33.54638
33.45142
33.18608
32.83943
32.59942
32.88609
33.07256
33.05058
32.97498
32.76453
32.46086
32.70364
32.6323
32.62664
34.08059
35.41257
36.26727
35.8639
34.74819
33.57891
34.05792
35.34944
36.10696
35.75918
34.71291
33.54922
34.00574
35.23245
35.90076
35.60819
34.64331
33.49039
33.93357
35.10086
35.69922
35.43404
34.55086
33.41881
33.8491
34.9735
35.57668
35.30772
34.44541
33.3411
33.75818
34.84006
35.43486
35.12331
34.33525
33.26018
33.65695
34.60183
35.32962
34.99772
34.19276
33.17515
33.54091
34.44863
35.22183
34.89213
34.03723
33.08294
33.42037
34.32137
35.14278
34.79083
33.88022
32.98457
33.30556
34.20311
35.04526
34.68837
33.67497
32.89781
33.14711
34.11445
34.94574
34.60668
33.57593
32.80479
33.03971
34.02614
34.82248
35.05515
34.50596
33.48887
32.93904
33.92504
34.6707
34.95446
34.39232
33.39983
32.83779
33.76395
34.57947
34.88803
34.17821
33.29021
32.72623
33.5233
34.49509
34.81619
34.03631
33.15255
32.58154
33.40881
34.34855
34.94231
34.69019
33.90585
32.96229
33.17402
34.01877
34.73568
34.41153
33.55031
32.74385
32.83336
33.73403
34.45834
34.77072
34.17109
33.27535
32.46571
33.34049
34.19542
34.76729
34.52433
33.77529
32.87547
32.91704
33.81332
34.52918
34.772
34.18125
33.38075
32.51295
32.51225
33.37637
34.17454
34.75723
34.49456
33.80151
32.91756
32.88747
33.76497
34.417
34.72421
34.13338
33.34157
32.482
32.42307
33.26227
34.0554
34.62363
34.29325
33.67179