/*--------------------------------*- C++ -*----------------------------------*\
| =========                 |                                                 |
| \\      /  F ield         | OpenFOAM: The Open Source CFD Toolbox           |
|  \\    /   O peration     | Version:  5.x                                   |
|   \\  /    A nd           | Web:      www.OpenFOAM.org                      |
|    \\/     M anipulation  |                                                 |
\*---------------------------------------------------------------------------*/
FoamFile
{
    version     2.0;
    format      ascii;
    class       volScalarField;
    location    "20/tissue";
    object      T;
}
// * * * * * * * * * * * * * * * * * * * * * * * * * * * * * * * * * * * * * //

dimensions      [0 0 0 1 0 0 0];

internalField   nonuniform List<scalar> 
87936
(
32.75657
33.15989
33.1792
33.06081
32.75957
33.14417
33.16369
33.0478
32.79024
33.11406
33.13262
33.03006
32.84236
33.07489
33.0942
32.9946
33.00578
33.05961
32.77041
32.96661
33.03955
32.71288
32.93881
33.03291
32.7373
32.84129
33.0339
32.84047
33.23619
33.70434
34.09426
34.4648
34.53382
34.3165
33.9556
33.3279
32.91527
33.18455
33.66542
34.05235
34.42295
34.49509
34.27096
33.91713
33.31227
32.92757
33.03598
33.56617
33.95811
34.33392
34.41592
34.16795
33.83285
33.27354
32.87352
33.3397
33.85669
34.22502
34.3154
34.04186
33.68336
33.24267
32.81332
33.26041
33.79775
34.11177
34.20101
33.93634
33.60506
33.19549
32.74892
33.17528
33.70256
33.9638
34.06517
33.80142
33.51268
33.12774
32.68493
33.088
33.56875
33.77805
33.91077
33.64582
33.39576
33.0521
32.6235
33.00067
33.43614
33.59376
33.72876
33.51975
33.25967
32.96698
32.5636
32.91978
33.28825
33.43194
33.52397
33.38055
33.06482
32.84272
32.90068
33.16485
33.35247
33.419
33.28699
32.91237
32.6517
32.83001
33.04642
33.2681
33.3208
33.19177
32.83925
32.51977
32.72805
32.86823
33.17143
33.22321
33.06615
32.84356
32.45388
32.65555
32.76221
33.06395
33.12354
32.91264
32.77582
32.43058
32.45061
32.76347
32.94874
33.01608
32.74859
32.67103
32.40976
32.65426
32.73333
32.81773
32.65957
32.59874
32.68396
32.74508
32.78112
32.72073
32.50184
32.4481
32.5745
32.3665
33.57124
34.44939
35.16816
35.87117
36.09188
36.13787
36.00514
35.47721
34.84281
34.07603
33.1457
33.55275
34.40152
35.10205
35.76177
35.95781
35.99364
35.89392
35.40431
34.78609
34.05288
33.12223
33.5105
34.3249
34.98614
35.60178
35.77142
35.78931
35.71678
35.27976
34.69137
34.00623
33.08348
33.45122
34.23447
34.86879
35.40917
35.57112
35.57627
35.51757
35.13297
34.6025
33.93172
33.03195
33.38173
34.13132
34.74254
35.18872
35.40313
35.43959
35.36404
34.9865
34.49619
33.84214
32.97212
33.30592
34.02423
34.61483
35.02318
35.23742
35.27257
35.20178
34.83853
34.37974
33.73987
32.90506
33.22635
33.9068
34.47939
34.87098
35.10415
35.11417
35.0182
34.68977
34.23964
33.61362
32.82664
33.14297
33.77938
34.33738
34.72506
34.95105
34.98417
34.86002
34.53996
34.09063
33.43165
32.72424
33.08613
33.65671
34.20782
34.58877
34.81538
34.85248
34.7285
34.40309
33.94432
33.29302
32.65854
32.97566
33.54918
34.0808
34.4486
34.69059
34.73233
34.5939
34.27488
33.80878
33.16496
32.60493
32.78347
33.43219
33.93426
34.29007
34.56529
34.61596
34.44914
34.12876
33.67672
33.05928
32.64375
33.26929
33.77784
34.14183
34.43042
34.49173
34.2982
33.99092
33.5292
32.96834
32.51886
33.07389
33.59695
34.00658
34.28959
34.35815
34.15473
33.8335
33.36785
32.89997
32.45501
32.9218
33.44559
33.8644
34.15017
34.2199
34.01798
33.66959
33.24243
32.78987
32.78496
33.29703
33.71328
34.01406
34.07976
33.88287
33.49271
33.07478
32.55609
32.82403
33.17622
33.54313
33.8377
33.89366
33.71374
33.35737
32.94444
32.5029
32.46007
32.8911
33.31233
33.53383
33.57298
33.43282
33.13298
32.80621
32.64263
32.93103
33.18491
33.23137
33.09524
32.78389
32.3384
32.26125
32.65481
32.76964
32.82258
32.78995
32.50373
32.41457
32.45563
32.32903
33.07811
34.05176
35.00894
35.96314
36.38244
35.64219
34.4688
33.5478
33.06459
33.99464
34.96123
35.85566
36.18443
35.55925
34.43087
33.53294
33.04442
33.89701
34.87392
35.67959
35.94993
35.43012
34.35921
33.50775
33.79523
34.76939
35.50356
35.77458
35.28243
34.27157
33.36465
33.69794
34.66146
35.37818
35.63574
35.15685
34.17797
33.24546
33.59689
34.55301
35.22974
35.57397
35.43542
35.00978
34.08216
33.13626
33.49366
34.44095
35.11358
35.45914
35.29017
34.835
33.98218
33.03762
33.39536
34.32892
35.00185
35.36295
35.17215
34.67783
33.88203
32.94583
33.299
34.21527
34.89774
35.27818
35.07532
34.55011
33.7796
32.85255
33.20399
34.08571
34.79891
35.11236
35.26016
34.96406
34.42905
33.66571
32.75612
33.11266
33.9387
34.66818
35.00223
35.16887
34.86101
34.30222
33.52713
32.66293
33.03719
33.80178
34.48804
34.92643
35.16298
35.05498
34.77385
34.17546
33.3767
32.59759
32.86062
33.6706
34.34829
34.8262
35.05086
35.13842
34.96092
34.66581
34.04961
33.23356
32.70558
33.5352
34.21426
34.7411
34.97121
35.11903
35.03064
34.8809
34.50927
33.91188
33.10179
32.55834
33.38336
34.07677
34.63484
34.91106
35.01897
35.02833
34.9836
34.7971
34.3518
33.75958
32.97744
32.59088
33.22975
33.91532
34.4237
34.7223
34.85549
34.85766
34.83189
34.64056
34.17217
33.59101
32.9572
32.94144
33.58625
34.08703
34.51629
34.65782
34.66694
34.61817
34.30953
33.87544
33.24923
32.57585
32.55325
33.19102
33.72758
34.11262
34.29602
34.32217
34.22387
33.95446
33.50859
32.90426
32.82439
33.32531
33.7201
33.90898
33.93898
33.83968
33.53994
33.08811
32.50424
32.37121
32.88715
33.28732
33.4812
33.52481
33.40191
33.06524
32.72014
32.39519
32.79712
32.99218
33.09777
32.92914
32.68066
32.3525
32.5917
32.69583
32.46374
34.17896
35.53701
36.4152
35.94149
34.83367
33.52115
34.12206
35.44966
36.21302
35.83066
34.77976
33.49319
34.04198
35.29983
35.98833
35.64893
34.68553
33.4437
33.9682
35.13773
35.76476
35.45623
34.58059
33.37213
33.87938
34.99299
35.64676
35.32249
34.46809
33.28533
33.77708
34.8222
35.50633
35.17971
34.34689
33.19682
33.67088
34.66787
35.3884
35.06258
34.22528
33.10882
33.56204
34.54193
35.28855
34.95693
34.10283
33.01903
33.44664
34.42706
35.21168
34.86589
33.97565
32.92167
33.33601
34.31918
35.05475
35.26043
34.76779
33.8571
32.82443
33.23277
34.20931
34.92838
35.16101
34.65966
33.73816
32.73305
33.12292
34.08712
34.8326
35.10721
34.54122
33.59652
32.63475
32.95115
33.96267
34.73203
35.02422
34.37535
33.4558
32.81773
33.83366
34.64323
35.088
34.9017
34.24456
33.3271
32.67146
33.68758
34.52942
35.03899
34.79556
34.11684
33.18595
32.63248
33.48188
34.31986
34.86319
35.0569
34.63663
33.94404
33.09196
33.2236
34.01034
34.63078
34.99971
34.82253
34.38722
33.63192
32.77399
32.91807
33.66649
34.35047
34.69616
35.00515
34.87474
34.55023
34.00774
33.25945
32.45905
32.46813
33.25594
33.93001
34.42089
34.67569
34.82161
34.77737
34.78553
34.58976
34.18476
33.62611
32.87308
32.82978
33.50125
33.99605
34.33238
34.54853
34.56218
34.49481
34.17647
33.78398
33.18195
32.43545
32.41179
33.04074
33.58173
33.90416
34.0899
34.12703
34.02384
33.7446
33.356
32.81397
32.52107
33.06367
33.40647
33.59638
33.65662
33.53609
33.27146
32.85256
32.54189
32.8602
33.02705
33.13437
32.99659
32.77483
32.34851
32.35717
32.5046
32.56822
32.47567
34.08723
35.48078
36.23054
34.73673
33.40944
34.06498
35.40359
36.05435
34.70725
33.38069
34.01273
35.28549
35.85428
34.64906
33.3285
33.93872
35.17188
35.6889
34.57024
33.26067
33.85053
35.05323
35.54438
34.47737
33.1828
33.75307
34.93245
35.39843
34.37565
33.10029
33.64336
34.81333
35.24493
34.26485
33.01133
33.52041
34.69264
35.35166
35.05075
34.13676
32.89878
33.39478
34.50634
35.25511
34.9223
33.98906
32.79499
33.26442
34.36632
35.15661
34.81202
33.84865
32.71807
33.10801
34.23847
35.08401
34.71014
33.69599
32.9887
34.11733
35.02909
34.61621
33.55926
32.8785
34.01396
34.92946
34.51951
33.45526
32.76313
33.90806
34.77022
35.05541
34.41899
33.34182
32.63646
33.76222
34.67084
34.99284
34.25403
33.20653
32.60086
33.54691
34.50744
34.86479
34.07778
33.09195
33.30259
34.26963
34.90941
34.56776
33.8104
32.80267
32.85317
33.89342
34.59409
34.90027
34.30279
33.41123
32.5216
33.47103
34.30457
34.80382
34.96499
34.57941
33.90482
33.04409
33.09661
33.87062
34.48797
34.89924
34.69348
34.25265
33.52586
32.63772
32.59934
33.3863
34.06661
34.5241
34.77182
34.87649
34.87775
34.86496
34.65603
34.35931
33.78697
33.06801
32.92986
33.58966
34.09316
34.42872
34.55486
34.57023
34.52822
34.25054
33.86977
33.28864
32.5143
32.40932
33.05379
33.57274
33.90723
34.06727
34.09617
34.02192
33.74679
33.29081
32.78861
32.45632
33.02034
33.35306
33.53855
33.57092
33.46832
33.17222
32.80446
32.41439
32.78611
32.95226
32.99474
32.84955
32.58484
32.41294
32.49084
33.6807
35.34562
36.09017
34.50398
33.65911
35.283
35.95719
34.47488
33.61512
35.16968
35.77325
34.41393
33.55443
35.04149
35.58615
34.33013
33.48354
34.9188
35.45914
34.22892
33.40576
34.793
35.30352
34.1058
33.30642
34.59693
35.13672
33.93059
33.22679
34.45295
35.34009
34.96708
33.82181
33.12355
34.3298
35.25282
34.8593
33.715
33.01327
34.21542
35.16169
34.7523
33.6245
32.90786
34.12122
35.06688
34.64595
33.54062
32.79455
34.02711
35.01108
34.55918
33.43788
32.6908
33.92082
34.91911
34.47044
33.31522
33.77004
34.75729
35.07714
34.35784
33.12658
33.56439
34.6453
35.00417
34.18507
32.96353
33.47611
34.4822
34.88878
34.01943
32.9065
33.2153
34.23015
34.95897
34.60356
33.7649
32.60149
32.82236
33.89928
34.77898
34.36573
33.41864
32.44515
33.51092
34.41497
34.78346
33.99635
33.01827
33.12346
34.03537
34.67577
34.93906
34.40546
33.61468
32.59602
32.63354
33.62002
34.35839
34.90031
34.63356
34.02248
33.18404
33.15264
33.9249
34.50133
34.91305
34.72387
34.27327
33.58247
32.65671
32.55453
33.39403
34.04728
34.50835
34.74126
34.85139
34.86126
34.85854
34.61355
34.31663
33.77463
33.0466
32.84074
33.54085
34.01325
34.34455
34.49163
34.49933
34.46485
34.15672
33.80321
33.2129
32.43819
32.90488
33.42807
33.73919
33.94068
33.98109
33.85867
33.60071
33.17666
32.52788
32.80432
33.10855
33.31766
33.37344
33.19294
32.95372
32.46141
32.4443
32.62905
32.72112
32.55695
33.38932
34.781
36.36638
35.56885
34.10819
33.36221
34.74494
36.18104
35.49371
34.08635
33.31506
34.67591
35.9568
35.36462
34.03629
33.25784
34.59103
35.74075
35.21926
33.96798
33.19072
34.50309
35.61697
35.10939
33.88545
33.1011
34.41367
35.47406
34.98844
33.78473
33.02599
34.32323
35.35768
34.8876
33.66785
34.22645
35.25096
34.78364
33.52335
34.12043
35.17374
34.69107
33.41232
33.98945
35.08432
34.58059
33.30132
33.8125
34.97638
34.47004
33.17622
33.69872
34.84456
34.33246
33.07302
33.58013
34.69211
35.09111
34.1834
32.94818
33.46795
34.59347
35.01235
34.06936
32.80429
33.35163
34.5151
34.96435
33.97176
32.6775
33.19377
34.34586
34.82391
33.832
32.90092
34.05885
34.89537
34.51761
33.52839
32.53345
33.77539
34.74779
34.29899
33.19963
33.40592
34.37188
34.78067
33.93165
32.78444
32.92457
33.97679
34.80103
34.40062
33.51426
32.48976
33.54161
34.43439
34.81128
34.10035
33.09418
33.10428
34.01099
34.74909
34.38564
33.60882
32.57493
32.51041
33.50146
34.27894
34.84823
34.54824
33.92496
33.088
32.99654
33.78295
34.36575
34.79965
34.87935
34.58304
34.07737
33.39949
32.50133
32.38006
33.21095
33.83212
34.33865
34.5665
34.69187
34.7502
34.64753
34.43412
34.07856
33.55846
32.81605
32.50693
33.21946
33.729
34.03762
34.19454
34.22024
34.14141
33.90806
33.51187
32.91338
32.48048
33.07938
33.3982
33.56467
33.60368
33.50445
33.22657
32.80368
32.38914
32.69249
32.87818
32.9386
32.81438
32.56372
33.3751
34.45401
36.09487
35.31921
33.77079
33.35285
34.42229
35.95631
35.25415
33.75085
33.30743
34.35196
35.76239
35.13139
33.70272
33.23694
34.23985
35.5759
34.9989
33.62723
33.14018
34.12414
35.42253
34.86446
33.50105
33.05554
34.01306
35.25843
34.67449
33.39674
32.98036
33.91168
35.13451
34.52725
33.26733
33.81707
35.01274
34.41584
33.12822
33.71209
34.90284
34.31195
33.01663
33.59677
34.75298
35.2044
34.2095
32.91419
33.48464
34.65246
35.112
34.10856
32.82285
33.36808
34.55743
35.03094
33.99317
32.74341
33.1938
34.45726
34.95067
33.82234
33.05181
34.3538
34.86651
33.699
32.89298
34.21341
34.75545
33.56753
32.83467
34.04027
34.98863
34.55215
33.47452
33.73767
34.79563
34.30186
33.12639
33.44954
34.48826
34.90447
34.00333
32.77986
33.03459
34.20833
34.67368
33.65916
32.62793
33.85568
34.72776
34.30308
33.31708
33.4477
34.34748
34.78277
33.93566
32.82249
32.89983
33.94228
34.76161
34.35697
33.48583
32.40465
33.48005
34.32748
34.71743
33.93291
32.99795
32.97154
33.86998
34.52191
34.83708
34.23711
33.43771
32.40529
33.30204
34.02506
34.57557
34.85189
34.3432
33.70902
32.77551
32.60903
33.4307
34.06035
34.51858
34.77737
34.86888
34.86348
34.83998
34.66715
34.32988
33.79513
33.09455
32.80125
33.49551
33.94771
34.22075
34.42017
34.433
34.37095
34.10318
33.71214
33.17431
32.39464
32.79581
33.22087
33.59904
33.77887
33.80141
33.71272
33.46312
33.03881
32.4173
32.45346
32.8157
33.02178
33.03578
32.97218
32.70894
33.43981
34.30055
35.42842
36.29088
34.74178
33.84325
33.42086
34.27687
35.36469
36.11897
34.70851
33.8267
33.38274
34.22697
35.25194
35.90457
34.64209
33.78631
33.32921
34.15998
35.12652
35.70213
34.55892
33.72853
33.26341
34.08249
35.00527
35.55316
34.47004
33.65855
33.18785
33.99363
34.90473
35.43512
34.37057
33.57891
33.1054
33.89253
34.79341
35.33309
34.25783
33.49319
33.01849
33.76493
34.67718
35.201
34.14515
33.39684
32.93242
33.62651
34.54024
35.06817
34.02489
33.27777
33.50622
34.40462
34.95682
33.90384
33.14231
33.39444
34.28737
34.86037
33.78329
33.02656
33.28485
34.17237
34.75411
33.65763
32.91302
33.15925
34.06638
35.08085
34.62383
33.49214
32.80153
33.01668
33.96184
34.98639
34.52478
33.3704
32.70343
32.84964
33.83468
34.92515
34.43382
33.22787
32.80148
33.66328
34.74036
34.24988
33.11574
33.40949
34.4617
34.92574
33.95056
32.77684
33.00381
34.22926
34.73266
33.63789
32.60031
33.89816
34.83573
34.37896
33.31998
33.54176
34.57354
34.08804
32.87016
33.05822
34.18892
34.65908
33.66645
32.58061
33.80687
34.69537
34.25743
33.26984
33.32881
34.26226
34.68235
33.82415
32.69893
32.72569
33.80175
34.54038
34.85874
34.1955
33.32194
33.27896
34.11818
34.79136
34.43842
33.71298
32.69243
32.55331
33.50857
34.23538
34.81518
34.5178
33.8959
33.11125
32.89843
33.65878
34.26741
34.66786
34.87705
34.80787
34.49208
33.97119
33.30914
32.38717
32.99708
33.63053
34.06303
34.3915
34.50303
34.50263
34.50518
34.28864
33.90132
33.31646
32.55555
32.86174
33.32715
33.69799
33.83752
33.84471
33.80041
33.56842
33.17155
32.50985
32.60788
32.9488
33.07455
33.09382
33.03398
32.75409
32.40049
33.52807
34.35326
35.25639
36.30326
35.8025
34.7979
33.88168
33.1759
33.49802
34.33161
35.20357
36.13407
35.70684
34.76549
33.86984
33.17678
33.44531
34.28417
35.1101
35.92378
35.55822
34.70164
33.83577
33.38097
34.2186
35.00446
35.72473
35.40389
34.62124
33.78148
33.30861
34.14133
34.90269
35.61551
35.29932
34.53386
33.71059
33.22975
34.05572
34.7993
35.49387
35.18169
34.44124
33.63003
33.14633
33.96291
34.69221
35.3912
35.07704
34.34309
33.54285
33.05943
33.86108
34.57613
35.26929
34.96662
34.23524
33.4507
32.97058
33.74211
34.4551
35.17446
34.8688
34.1114
33.3547
32.88108
33.57542
34.34079
35.05762
34.74638
33.98237
33.24166
33.46839
34.22096
34.93983
34.55329
33.86781
33.09687
33.35905
34.11124
34.86582
34.43285
33.75712
32.98425
33.25017
34.00271
34.77896
34.32447
33.64379
32.87105
33.13399
33.87905
34.65596
35.09923
34.21518
33.50103
32.75879
32.96867
33.76196
34.56262
35.02378
34.10821
33.34256
32.66255
32.91329
33.6184
34.39183
34.87405
33.94478
33.26883
33.31215
34.12785
34.62532
33.65895
32.93405
32.90054
33.83394
34.83488
34.34261
33.2909
33.50398
34.58976
34.09135
32.80988
33.04282
34.20035
34.72694
33.69259
32.5859
33.87126
34.81683
34.34261
33.32393
33.47123
34.45128
34.8434
34.02166
32.77859
32.8899
34.06477
34.84833
34.46075
33.5263
33.53961
34.45013
34.8103
34.06694
32.95198
32.9488
34.04044
34.78596
34.39202
33.5226
33.44858
34.24926
34.84818
34.57119
33.85932
32.87976
32.75936
33.74557
34.37117
34.85219
34.64488
34.10738
33.2982
33.07274
33.80517
34.34798
34.74662
34.8643
34.55474
34.12796
33.45898
32.52176
33.09887
33.68916
34.13309
34.43929
34.54466
34.53564
34.49758
34.33261
33.94565
33.41545
32.63946
32.92634
33.48676
33.761
33.9025
33.93702
33.83995
33.6181
33.20622
32.56287
32.65856
32.97355
33.1091
33.13509
33.05715
32.7715
32.38822
33.59839
34.45908
35.32629
36.3391
35.83398
34.87513
34.03641
33.19744
33.58405
34.41805
35.26747
36.16454
35.73795
34.83291
34.00117
33.18709
33.5109
34.35004
35.1657
35.9513
35.58638
34.75793
33.90164
33.18133
33.43551
34.27083
35.05249
35.74675
35.42802
34.66844
33.83581
33.34167
34.18242
34.94468
35.63727
35.32015
34.5736
33.7499
33.25119
34.09089
34.83925
35.51261
35.20167
34.47732
33.66048
33.1641
33.99743
34.73377
35.38911
35.09187
34.3801
33.57015
33.07693
33.90058
34.62446
35.22681
35.42963
34.96465
34.27987
33.47802
32.98905
33.79739
34.50761
35.09179
35.35671
34.82394
34.17206
33.38396
32.90173
33.6774
34.37676
34.99667
35.27398
34.69452
34.04516
33.28724
32.80551
33.51379
34.26454
34.91471
35.17859
34.59202
33.9187
33.15737
33.40801
34.16251
34.82546
35.10992
34.49324
33.80878
33.03142
33.29078
34.05654
34.72705
35.01136
34.38861
33.69383
32.90588
33.169
33.93579
34.58202
34.91984
34.2664
33.56326
32.78301
33.01109
33.79912
34.46931
35.08172
34.83558
34.14637
33.37362
32.66411
32.94832
33.66473
34.32371
34.93863
34.66903
34.00781
33.30777
32.64979
33.35633
34.05346
34.7356
34.41792
33.72685
32.98745
32.98435
33.71935
34.45633
34.91582
34.03254
33.34271
32.60496
32.58728
33.32037
34.17772
34.65896
33.68189
32.96696
32.90488
33.81624
34.83276
34.34561
33.27867
32.55293
33.45465
34.49286
34.02742
32.7653
32.92818
34.11903
34.60875
33.5808
33.65167
34.69218
34.16912
33.03505
33.20676
34.19659
34.66813
33.77053
32.48173
32.54146
33.77137
34.62814
34.19242
33.27339
33.22749
34.12481
34.83816
34.49117
33.73398
32.54318
32.45288
33.55192
34.36633
34.7539
34.0366
33.12086
32.83497
33.80078
34.4246
34.7619
34.13682
33.40825
33.1203
33.83162
34.36218
34.81917
34.57209
34.14159
33.49641
32.5907
33.11416
33.70195
34.2347
34.4617
34.58197
34.6537
34.50667
34.35944
33.96656
33.4317
32.6513
32.91998
33.46851
33.74966
33.8887
33.91158
33.83022
33.60769
33.19973
32.55524
32.48836
32.89523
33.06121
33.075
33.01541
32.7222
33.5282
34.45922
35.37486
36.36622
35.87456
34.91022
33.98101
33.4982
34.4182
35.31216
36.19083
35.77288
34.86433
33.91563
33.44569
34.35024
35.20424
35.98718
35.62995
34.7808
33.87342
33.38157
34.27137
35.08469
35.78824
35.47226
34.68634
33.80814
33.30934
34.18347
34.97048
35.65854
35.34972
34.58702
33.73325
33.23055
34.09192
34.86186
35.53314
35.22671
34.48863
33.6497
33.14705
33.99825
34.75814
35.41532
35.11787
34.3919
33.56145
33.06022
33.90145
34.65416
35.30015
35.0063
34.29394
33.46929
32.97131
33.79846
34.54628
35.17948
35.37103
34.89626
34.19076
33.37433
32.88172
33.67839
34.4226
35.0317
35.28573
34.75563
34.06983
33.2744
33.51461
34.29405
34.94046
35.21768
34.63071
33.93491
33.13179
33.40873
34.18866
34.86454
35.14988
34.53047
33.82454
33.01218
33.29125
34.08162
34.76908
35.06046
34.42598
33.70756
32.89257
33.16933
33.96248
34.66393
35.15001
34.92151
34.31349
33.57584
32.77432
33.01123
33.82324
34.5111
35.09405
34.82895
34.18148
33.38437
32.66143
32.94865
33.69719
34.35332
34.96093
34.6675
34.04163
33.32002
32.65025
33.3633
34.07295
34.65483
34.95857
34.37628
33.746
33.00814
33.00541
33.73776
34.35711
34.95883
34.67626
34.06027
33.36046
32.61385
32.60021
33.34949
34.04287
34.71674
34.39818
33.72371
32.99841
32.96088
33.67014
34.39745
34.8944
33.98416
33.31436
32.57252
32.53062
33.26536
34.10647
34.60057
33.62158
32.88895
32.7577
33.68231
34.68404
34.19575
33.15293
33.22972
34.2547
34.76071
33.76193
32.56055
32.61199
33.86032
34.78106
34.33011
33.33032
33.41271
34.31939
34.78226
33.94495
32.66089
32.69888
33.85651
34.73851
34.29916
33.40171
33.3318
34.18102
34.6322
33.79988
32.65688
32.51694
33.63566
34.37963
34.76115
34.06705
33.20519
32.96488
33.81698
34.41789
34.74539
34.14468
33.44567
32.38892
33.12265
33.82975
34.34658
34.81481
34.57202
34.14453
33.49442
32.60294
33.09514
33.67814
34.0964
34.42515
34.50629
34.50564
34.47717
34.31032
33.93224
33.40976
32.63644
32.85738
33.30414
33.6624
33.82277
33.83199
33.76969
33.55189
33.16322
32.507
32.43635
32.78585
33.01359
33.03491
32.91479
32.679
33.43983
34.35332
35.32639
36.36628
35.8572
34.83217
33.86317
33.42088
34.33165
35.26753
36.19096
35.75534
34.79652
33.84891
33.38276
34.2842
35.16567
35.98749
35.60512
34.72948
33.81137
33.32924
34.2186
35.05237
35.78872
35.45159
34.64573
33.75565
33.26344
34.14129
34.94464
35.65908
35.33787
34.55528
33.68671
33.18786
34.05563
34.83954
35.53372
35.21714
34.46086
33.60826
33.10547
33.96291
34.73428
35.4159
35.10805
34.36274
33.52242
33.01855
33.86118
34.62486
35.30065
34.99126
34.2581
33.43087
32.93249
33.74224
34.50781
35.17991
34.88369
34.14123
33.33135
33.57561
34.3768
35.03217
35.28355
34.72508
34.00837
33.19239
33.46858
34.26465
34.94096
35.21681
34.61328
33.89429
33.07056
33.35924
34.16269
34.86499
35.14968
34.5137
33.78561
32.95411
33.25039
34.05686
34.76963
35.06154
34.40991
33.67326
32.84581
33.13424
33.93621
34.66508
35.16091
34.93412
34.29543
33.54422
32.73648
32.969
33.79966
34.51378
35.1
34.84023
34.16629
33.35784
32.91362
33.66514
34.35726
34.96002
34.67753
34.02587
33.29285
33.35671
34.07293
34.68163
34.97278
34.3869
33.7388
32.96631
32.9846
33.73761
34.38198
34.93853
34.67623
34.06984
33.35303
32.60256
32.58751
33.35017
34.07777
34.6505
34.94957
34.4139
33.73794
32.98775
32.9613
33.6971
34.30292
34.91047
34.6206
34.0134
33.32639
32.5636
32.53084
33.27652
33.95777
34.62586
34.30904
33.63599
32.9096
32.82485
33.56598
34.26818
34.80546
33.88019
33.21391
33.03613
33.865
34.79756
34.33573
33.37522
32.61758
33.44525
34.45287
33.98456
32.7245
32.76462
33.99277
34.46438
33.49219
33.49853
34.45787
33.99199
32.80485
32.8076
33.95189
34.76774
34.32681
33.47378
33.37087
34.24173
34.66992
33.82671
32.74652
32.5341
33.70588
34.38659
34.73905
34.08317
33.2232
32.88213
33.80415
34.42442
34.75586
34.13305
33.42732
33.0819
33.80606
34.32687
34.70188
34.82894
34.52797
34.11815
33.4674
32.53395
33.02564
33.62784
34.0305
34.35739
34.49526
34.47363
34.44648
34.2555
33.86166
33.33464
32.57344
32.75747
33.21694
33.58107
33.76787
33.7903
33.67401
33.44332
33.00597
32.44958
32.64653
32.88717
32.90904
32.79048
32.49821
33.37509
34.30054
35.25639
36.33914
35.81046
34.76541
33.81946
33.35284
34.27686
35.20358
36.16457
35.71535
34.7327
33.80113
33.30742
34.22696
35.1101
35.95135
35.56727
34.66866
33.75698
33.23694
34.15992
35.00445
35.74682
35.41267
34.58878
33.69401
33.14019
34.0824
34.90272
35.63738
35.30643
34.50265
33.61752
33.0555
33.99351
34.79932
35.51277
35.18483
34.41023
33.52725
32.98032
33.89244
34.69209
35.38929
35.05975
34.31089
33.42245
33.76488
34.57602
35.22694
34.92617
34.19903
33.32193
33.62649
34.45505
35.09189
35.35337
34.78482
34.07674
33.18294
33.50624
34.3408
34.99676
35.2808
34.6701
33.95792
33.06796
33.39449
34.22102
34.91482
35.20755
34.56974
33.83674
32.95441
33.28492
34.11135
34.82563
35.12502
34.47052
33.72178
32.83089
33.15934
34.00285
34.7273
35.00667
34.36811
33.60015
32.72565
33.01678
33.87921
34.58237
35.15062
34.8863
34.25311
33.4288
32.84974
33.7621
34.46966
35.09556
34.81156
34.14464
33.2979
32.80156
33.6185
34.32368
34.9638
34.65469
33.9899
33.21476
33.31217
34.05328
34.6549
34.95209
34.35996
33.69736
32.87682
32.90058
33.7193
34.357
34.93866
34.64793
34.0599
33.32829
33.32037
34.04276
34.65078
34.96688
34.3446
33.70993
32.91567
32.90488
33.66999
34.30331
34.88953
34.59444
34.00703
33.30118
33.26539
33.95771
34.53396
34.83585
34.24747
33.63307
32.85718
32.75787
33.56657
34.15877
34.80711
34.47686
33.88677
33.20663
33.036
33.7178
34.37595
34.85292
34.01135
33.38524
32.5952
33.24195
34.03701
34.51335
33.58785
32.81285
32.57067
33.57621
34.53406
34.04981
32.99457
32.91814
34.08649
34.55081
33.57751
33.56388
34.4977
34.06702
32.88698
32.8472
33.96715
34.7487
34.34714
33.52608
33.33916
34.21373
34.68476
33.81691
32.6977
32.44866
33.62711
34.36894
34.73026
34.05484
33.20197
32.77878
33.75473
34.38473
34.81797
34.67702
34.10662
33.33854
32.9236
33.73985
34.25013
34.61815
34.84113
34.76352
34.43259
33.99405
33.37466
32.3701
32.81266
33.45953
33.93389
34.18696
34.41079
34.41525
34.35856
34.07662
33.73177
33.20972
32.37562
32.47111
33.05013
33.35023
33.59383
33.60319
33.53479
33.24655
32.79701
32.44479
32.60639
32.65402
32.55179
33.38931
34.454
35.42841
36.30326
35.8853
34.91947
33.94048
33.3622
34.42228
35.36468
36.13406
35.77994
34.87731
33.91664
33.31504
34.35194
35.25193
35.92377
35.62281
34.79454
33.86378
33.25782
34.23979
35.12653
35.72473
35.46396
34.68682
33.78883
33.1907
34.12411
35.00525
35.61552
35.35696
34.57811
33.66215
33.10108
34.01303
34.90471
35.49387
35.2363
34.47221
33.55487
33.02598
33.91166
34.79339
35.39121
35.12627
34.36317
33.42844
33.81705
34.67716
35.2693
35.00078
34.26
33.32389
33.71209
34.54024
35.17448
34.86357
34.14862
33.21124
33.59678
34.40464
35.05765
35.26215
34.75519
34.02872
33.09674
33.48467
34.2874
34.93989
35.16003
34.65648
33.9064
32.98327
33.36811
34.17242
34.86589
35.10503
34.55597
33.75998
32.88797
33.19384
34.06644
34.77905
35.03516
34.46166
33.65821
32.79635
33.05186
33.96191
34.65606
34.94437
34.3659
33.53418
32.89304
33.83476
34.56272
35.08187
34.86174
34.21209
33.3968
32.83475
33.66337
34.39191
34.93872
34.70352
34.04507
33.2764
33.40961
34.12793
34.7356
34.9846
34.44363
33.78664
32.93914
33.00403
33.83409
34.45638
34.95882
34.73652
34.18998
33.47816
32.60069
33.50425
34.17776
34.71669
34.95132
34.44653
33.83986
33.03832
33.04308
33.81612
34.3973
34.91044
34.67636
34.15003
33.49396
32.61395
32.58566
33.45437
34.10627
34.6258
34.86722
34.3521
33.77862
33.00722
32.92796
33.68216
34.26807
34.80705
34.55193
34.0427
33.38531
33.22966
33.86496
34.37589
34.66629
34.14337
33.57636
32.7676
32.612
33.44522
34.03698
34.60363
34.26635
33.70086
33.02294
32.76454
33.57623
34.19981
34.69549
33.92087
33.22164
32.92108
33.82498
34.69559
34.21233
33.36936
33.30162
34.20361
34.68709
33.80718
32.57375
33.7715
34.62047
34.15347
33.18068
33.06882
34.03803
34.51535
33.72908
33.49308
34.28847
34.65754
33.94921
32.89585
32.60022
33.76373
34.40372
34.71729
34.05697
33.37509
32.83467
33.79677
34.40205
34.67133
34.08916
33.4574
32.95123
33.68332
34.20399
34.5724
34.80474
34.69163
34.43997
33.99187
33.45049
32.43641
32.71722
33.52323
33.96109
34.22697
34.31883
34.32895
34.32154
34.10313
33.70171
33.18593
32.48742
33.00852
33.38597
33.50545
33.56558
33.49377
33.25276
32.81354
32.48947
32.71874
32.68716
32.6494
33.6807
34.781
36.09488
35.42352
34.17444
33.21186
33.65911
34.74494
35.95633
35.35445
34.15529
33.18797
33.61512
34.67591
35.7624
35.23461
34.10743
33.14453
33.55443
34.59103
35.57589
35.1106
34.04174
33.08709
33.48353
34.50309
35.42251
35.68095
35.00614
33.96739
33.02181
33.40576
34.41367
35.25842
35.54878
34.88914
33.88955
32.95818
33.30642
34.32323
35.1345
35.43734
34.77758
33.81368
32.90916
33.2268
34.22645
35.01274
35.31617
34.66307
33.73321
33.12356
34.12044
34.90285
35.21458
34.55121
33.6379
33.01328
33.98946
34.75299
35.10299
34.40697
33.53082
32.90787
33.81252
34.65248
35.03451
34.25813
33.40328
32.79457
33.69875
34.55746
34.93509
34.14791
33.24578
32.69082
33.58016
34.4573
35.0809
34.8015
34.04422
33.11644
33.46799
34.35385
34.98645
34.69301
33.9331
32.97551
33.35168
34.21348
34.92522
34.56841
33.79148
32.83644
33.19384
34.04036
34.74047
35.02334
34.4013
33.6432
32.7771
32.90104
33.73782
34.4619
34.81744
34.16895
33.3731
32.53362
33.4498
34.22969
34.83533
34.55887
33.85022
32.97039
33.03498
33.89913
34.592
34.86855
34.2327
33.53016
32.59354
32.62819
33.54238
34.22031
34.82952
34.55664
33.89859
33.06983
33.05747
33.87037
34.49072
34.78982
34.18047
33.52526
32.62138
32.58021
33.4708
34.11858
34.68378
34.3766
33.81164
33.01109
32.88979
33.65164
34.2548
34.79761
34.56993
34.02449
33.34779
32.48233
33.2069
33.86074
34.4531
34.72005
34.14705
33.54674
32.75135
32.54145
33.41257
33.99231
34.53363
34.79265
34.226
33.69473
32.96732
32.69851
33.49805
34.08608
34.6954
34.36785
33.8001
33.10308
32.80732
33.56368
34.20346
34.70617
33.91823
33.26178
32.84707
33.77142
34.6517
34.16377
33.29157
32.45839
33.06878
34.1015
34.60204
33.72869
33.65512
34.45276
34.01199
32.90571
32.69505
33.81116
34.67903
34.24222
33.40389
33.17995
34.02572
34.71902
34.42126
33.71091
32.47091
33.34289
34.06563
34.71556
34.44966
33.75521
32.76578
32.28489
33.40431
34.03914
34.55418
34.75853
34.29122
33.77973
32.85158
32.36465
33.22261
33.80437
34.20847
34.5451
34.62282
34.64058
34.60994
34.36639
34.04151
33.53335
32.86111
32.95354
33.44169
33.79791
33.93085
33.95647
33.89882
33.66353
33.25148
32.55045
32.41218
32.95846
33.29662
33.49923
33.54412
33.45246
33.17056
32.71972
32.44424
32.83357
33.03519
33.06495
32.94505
32.65671
32.34621
32.58054
32.57261
32.50553
34.08723
35.34562
36.36639
35.88233
34.71433
33.52261
34.06498
35.283
36.18105
35.77394
34.68024
33.48519
34.01273
35.16968
35.9568
35.61621
34.61276
33.41979
33.93873
35.0415
35.74075
35.43613
34.52288
33.34549
33.85053
34.9188
35.61697
35.3066
34.41936
33.26353
33.75307
34.793
35.47407
35.12441
34.30755
33.17869
33.64337
34.59693
35.35768
34.98567
34.17088
33.09033
33.52041
34.45295
35.25097
34.87297
34.0245
32.9946
33.39478
34.32981
35.17375
34.77428
33.87637
32.8925
33.26443
34.21543
35.08433
34.67374
33.70616
32.79646
33.10802
34.12123
34.9764
34.58658
33.60688
32.69092
32.98871
34.02713
34.84458
35.10737
34.48223
33.51262
32.87852
33.92084
34.69213
35.0137
34.37475
33.41312
32.76315
33.77007
34.5935
34.94006
34.20237
33.28816
32.63648
33.56441
34.51513
34.89615
34.07155
33.13352
32.60088
33.47615
34.34591
34.98869
34.71857
33.94129
32.96887
33.21534
34.05892
34.79571
34.42959
33.62237
32.73609
32.82241
33.77547
34.48838
34.83065
34.18224
33.33547
32.4452
33.40599
34.20844
34.83594
34.56752
33.82212
32.87739
32.9246
33.8557
34.57359
34.84466
34.20119
33.45055
32.48684
32.48974
33.44766
34.18884
34.81686
34.5415
33.84717
32.93198
32.89979
33.80681
34.45125
34.80054
34.15124
33.41526
32.46372
32.40463
33.32879
34.06477
34.69221
34.32034
33.71628
32.83026
32.72569
33.53963
34.19666