
6433
(
32.04716
31.91093
31.88658
31.94296
31.77356
31.91463
31.94094
31.74614
31.92084
31.93295
32.01257
31.96656
32.02088
31.93569
31.71153
31.91438
32.17508
31.72314
31.74171
31.83625
31.89453
31.72082
31.77206
31.74047
31.77402
31.87911
31.79741
31.79755
31.92358
31.87911
31.79743
31.65571
31.70566
31.69629
31.70703
31.69824
31.82618
31.74368
31.75659
31.83535
31.82621
31.74369
31.80631
31.88419
31.87742
31.83207
31.80624
31.88427
31.86985
31.89582
31.84775
31.79832
31.81324
31.80385
31.84489
31.79738
31.69974
31.92047
31.93388
31.75587
31.77907
31.70542
31.7611
31.8108
31.79731
31.86059
31.81085
31.8601
31.89708
31.75148
31.68571
31.72457
31.7978
31.61784
31.66573
31.58238
31.63387
31.6543
31.85033
31.79116
31.7714
31.76415
31.80343
31.83884
31.77298
31.7536
31.81073
31.7731
31.66743
31.68254
31.70622
31.81341
31.83897
31.70688
31.65624
31.76246
31.70284
31.72467
31.80064
31.82545
31.845
31.80174
31.8255
31.72477
31.70696
31.8007
32.18594
31.872
31.92614
32.23943
31.86784
31.87603
31.87178
31.9077
31.88205
31.84762
31.78042
31.82618
31.73132
31.79434
31.71543
31.72369
31.63705
31.7046
31.71809
31.71407
31.71035
31.81353
31.82105
31.87562
31.85964
31.71203
31.73461
31.71565
31.67867
31.69055
31.70433
31.66624
31.64872
31.68342
31.71708
31.73129
31.69686
31.73996
31.72023
31.82743
31.72611
31.74421
31.86329
31.89229
31.88042
31.85394
31.85401
31.86338
31.74437
31.74008
32.11259
31.82467
31.87107
32.07639
31.82073
31.85842
31.90639
31.94048
31.88368
31.87809
31.96201
31.93301
31.84586
31.8071
31.87972
31.8289
31.81016
31.75315
31.7933
31.77431
31.77435
31.91119
31.79909
31.85046
31.87196
31.87347
31.85171
31.79964
31.68585
31.68337
31.73629
31.78471
31.70382
31.72894
31.80022
31.77706
31.69485
31.66035
31.68257
31.74458
31.80362
31.75512
31.71019
31.80033
31.75742
31.73109
31.72113
31.8429
31.78383
31.82123
31.87594
31.84301
31.78395
31.7313
31.72133
31.93472
32.25136
32.17579
31.89268
31.94092
31.93611
31.88786
31.92281
31.88539
31.92649
31.94939
31.93413
31.91858
31.88726
31.88471
31.94709
31.89103
31.83508
31.83258
31.85184
31.95709
32.01869
32.03906
31.9359
31.91882
31.78664
31.88804
31.93108
31.95315
31.80447
31.73975
31.79276
31.74143
31.67116
31.6198
31.66542
31.81309
31.79391
31.80316
31.80948
31.78061
31.79893
31.74453
31.69129
31.73631
31.81365
31.64016
31.69175
31.73692
31.62793
31.6973
31.69767
31.91565
32.15438
32.2281
31.99043
31.97129
31.93851
31.93205
31.90565
31.93336
31.95599
31.90313
31.93154
31.97202
32.01775
31.99359
31.93342
31.95605
31.95919
31.91071
31.92873
31.98967
31.86148
31.84952
31.85316
31.90092
31.84134
32.03695
32.00013
31.94857
31.97815
32.02969
31.92067
31.93774
31.82991
31.91113
31.77604
31.78082
31.75904
31.64705
31.73029
31.62911
31.7126
31.76297
31.63832
31.71124
31.70872
31.64162
31.57132
31.59117
31.64086
31.7281
31.84161
31.74584
31.74908
31.76482
31.79903
31.88799
31.85735
31.86342
31.94687
31.88837
31.88472
31.94462
31.94733
31.86925
31.85786
31.86407
31.79985
31.84229
32.03318
32.2712
32.29429
32.05541
31.99569
32.0201
32.0432
32.02057
31.98776
31.9427
31.91521
31.95902
31.97447
31.93071
31.88618
31.91555
31.96434
31.99644
32.00644
31.97463
31.93084
31.9226
31.84385
31.8947
31.97041
31.88212
32.0269
32.08747
32.11754
32.06041
31.95936
31.984
31.85559
31.82505
31.82092
32.00336
31.91452
31.91006
31.79823
31.89357
31.76956
31.82987
31.84529
31.89509
31.81922
31.7129
31.72504
31.8545
31.84138
31.82175
31.69625
31.79458
31.76666
31.73367
31.72309
31.79447
31.87004
31.79579
31.83405
31.84974
31.87138
31.92929
31.96127
31.92395
31.90129
31.90157
31.92962
31.89896
31.94271
31.90988
32.06525
32.30456
32.30509
32.06573
32.03103
32.05321
32.05367
32.03147
31.95294
31.99875
31.99914
31.95326
31.91418
31.88893
31.88916
31.91431
31.97456
31.99228
31.92117
31.92843
31.99657
31.98554
32.11954
32.0963
32.07746
32.09024
31.90434
31.93165
31.8843
31.84494
31.84632
31.87676
31.79464
31.81406
31.92894
31.82037
31.76641
31.78503
31.83986
31.93251
31.85035
31.80427
31.84508
31.69368
31.70173
31.78562
31.87814
31.75453
31.73358
31.65193
31.66681
31.72963
31.79165
31.73519
31.86715
31.84428
31.79347
31.8432
31.86139
31.90641
31.90992
31.8859
31.89955
31.94624
31.95377
31.96043
31.97856
31.84457
31.95484
31.96168
31.90111
32.05627
32.29512
32.27175
32.03374
32.02064
31.99619
32.02136
32.04404
31.94324
31.98844
31.95944
31.91554
31.91584
31.88659
31.93098
31.97469
31.96458
31.9925
31.92132
31.89495
31.97075
32.0965
32.11971
31.98576
32.0905
32.07774
31.90442
31.93802
31.911
31.88647
31.87007
31.8768
31.79799
31.83651
31.78351
31.72392
31.67882
31.73801
31.96228
31.96101
31.96388
32.0126
31.94444
31.79432
31.7884
31.8246
31.9479
31.89132
31.78632
31.7297
31.76765
31.8285
31.79965
31.91774
31.92444
31.92241
31.86992
31.88527
31.95186
31.92005
31.94102
31.91519
31.95445
31.96995
31.97059
32.00056
32.00205
31.9712
31.91869
31.97442
31.97595
31.97048
31.99065
32.22832
32.15442
31.91569
31.93866
31.97149
31.90567
31.93202
31.93161
31.90319
31.95591
31.93324
31.972
31.99689
32.00687
31.92913
31.99006
31.99005
31.92297
31.84418
31.84172
31.86187
32.08757
32.027
31.88216
31.95935
32.06041
32.11759
31.84512
31.81043
31.82131
32.00369
32.00529
31.88446
31.76678
31.80861
31.78367
31.72418
31.84446
31.82081
31.89686
31.91698
31.86571
31.91693
31.89671
31.84751
31.80328
31.82912
31.81625
31.89891
31.8492
31.80137
31.84923
31.82834
31.85992
31.83359
31.80467
31.77682
31.69556
31.71393
31.75734
31.78007
31.90154
31.85707
31.80833
31.77222
31.84107
31.89127
31.86233
31.78545
31.91958
32.04146
31.91275
31.9755
32.00922
32.13089
32.10955
32.05891
32.07607
32.04284
32.11026
32.05974
32.01081
31.77466
31.91471
31.97773
31.92234
31.89266
32.17577
32.25133
31.93468
31.9228
31.88783
31.93606
31.94088
31.93413
31.9494
31.92646
31.88536
32.01806
31.99392
31.93456
31.94977
31.95955
31.91111
31.94751
31.91898
31.9428
31.84994
31.8536
31.85231
31.89147
32.02965
31.97811
31.94852
32.00007
32.0369
31.85614
31.91769
31.91184
31.92128
31.94944
31.98449
31.79523
31.81483
31.88491
31.89461
31.91535
31.84068
31.96245
31.94477
32.01271
31.96373
31.96095
31.94742
31.85191
31.80564
31.88389
31.96444
31.89883
31.81606
31.82909
31.80355
31.84944
32.01057
31.98475
31.991
31.85246
31.90142
31.98198
31.95331
31.96184
31.96339
31.9867
32.00317
31.89479
31.80852
31.7768
31.84004
31.89657
31.92588
31.86006
31.86977
31.89823
31.98214
31.85889
31.9174
31.86419
31.8696
31.9682
31.92246
31.88014
31.89769
31.93288
31.90929
31.88112
31.89891
31.86451
31.97561
31.90613
32.11278
31.82486
31.92639
32.23968
31.90796
31.82093
31.85865
31.87205
31.87799
31.84576
31.93292
31.96192
31.87839
31.84621
31.78073
31.82647
31.80701
31.81008
31.82884
31.87965
31.80751
31.81063
31.77041
31.72411
31.73168
31.7743
31.77425
31.79324
31.7531
31.8719
31.8504
31.79903
31.91112
31.87341
31.9194
31.95778
31.87288
31.85125
31.80444
31.9531
31.93104
31.888
31.78661
31.77603
31.64707
31.7591
31.78084
31.621
31.6749
31.77762
31.64889
31.59073
31.67258
31.76986
31.7132
31.8194
31.89525
31.84544
31.8301
31.78591
31.70196
31.69384
31.75473
31.87848
31.79608
31.7904
31.8174
31.75868
31.88167
31.8603
31.82863
31.84938
31.80142
31.83362
31.98302
31.97928
31.8394
31.86422
32.00345
31.91616
31.87429
31.8382
31.8423
31.89852
31.93008
31.72375
31.67827
31.67735
31.70119
31.76188
31.77578
31.82059
31.86837
31.831
31.74493
31.75728
31.86549
31.91658
31.82868
31.76556
31.87271
31.75866
31.79348
31.77662
31.81034
31.8663
31.92726
31.81456
31.84444
31.9574
31.92895
31.81644
31.81374
31.86949
31.83862
31.77048
31.7632
31.7994
31.74514
31.75585
31.93385
31.92045
31.69972
32.18628
31.87234
31.75624
31.93424
31.81078
31.76109
31.7054
31.77905
31.79729
31.86818
31.87639
31.8112
31.76149
31.88243
31.84802
31.86059
31.89752
31.79478
31.71592
31.72516
31.79834
31.63759
31.70523
31.71555
31.63463
31.65495
31.85959
31.87558
31.82103
31.8135
31.80065
31.68704
31.72764
31.71698
31.67983
31.73218
31.74113
31.79442
31.7993
31.73084
31.80185
31.75395
31.71326
31.73268
31.76284
31.80588
31.81181
31.78009
31.72513
31.69628
31.82179
31.84146
31.85461
31.64398
31.62803
31.72883
31.70096
31.59478
31.72971
31.66687
31.65197
31.73361
31.79167
31.7897
31.73376
31.70953
31.79838
31.73483
31.75729
31.71391
31.69555
31.77681
31.80466
31.8985
31.81309
31.7741
31.81468
31.76497
31.72686
31.68199
31.84424
31.90084
31.71565
31.71211
31.9321
31.87766
31.93221
31.71195
31.69347
31.83245
31.77487
31.82598
31.77474
31.43807
31.55376
31.78832
31.70953
31.51592
31.7015
31.60446
31.65224
31.60457
31.70958
31.66106
31.76683
31.72134
31.71098
31.75753
32.17551
32.06738
31.91868
31.91482
31.89499
31.87865
31.82365
31.83674
31.86107
31.81138
31.74106
31.77456
31.75207
31.68638
31.65644
31.70633
31.68107
31.6082
31.61858
31.66658
31.70521
31.68593
31.80341
31.76414
31.77138
31.79115
31.85034
31.70562
31.71356
31.70826
31.68421
31.70769
31.71752
31.73334
31.75239
31.78654
31.70592
31.77931
31.71944
31.80152
31.81617
31.7761
31.74796
31.80649
31.73064
31.71233
31.64576
31.61016
31.63259
31.70137
31.75058
31.79449
31.72311
31.73369
31.76667
31.79458
31.87004
31.80153
31.87303
31.88283
31.87831
31.88527
31.86992
31.92242
31.92444
31.91774
31.95186
31.89626
31.90977
31.90907
31.96478
31.85893
31.98218
31.89824
31.86978
31.86007
31.91741
31.83089
31.86832
31.82064
31.86549
31.75727
31.74491
31.77465
31.82598
31.77489
31.83252
31.69349
31.64829
31.74137
31.71609
31.74143
31.64827
31.63732
31.66113
31.58159
31.57954
31.67486
31.67724
31.75869
31.77004
31.74648
31.81293
31.78174
31.76066
31.69567
31.6758
31.73616
31.93621
31.71203
31.88469
31.98471
31.72367
31.74228
31.91707
31.91279
31.72145
31.77275
31.67601
31.72995
31.87907
31.92352
31.79748
31.79737
31.69821
31.707
31.69624
31.74361
31.82611
31.84897
31.78693
31.86852
31.89722
31.83883
31.81071
31.75358
31.77297
31.66846
31.6513
31.75731
31.7282
31.65146
31.69801
31.66403
31.77813
31.77696
31.66518
31.73631
31.69129
31.74453
31.81365
31.64459
31.69666
31.75074
31.74701
31.63794
31.74584
31.84161
31.79903
31.76482
31.74909
31.7732
31.84192
31.81116
31.80873
31.8859
31.90992
31.90641
31.86139
31.8432
31.89955
31.89951
31.95332
31.90396
31.91521
31.89127
31.84107
31.77222
31.91958
31.78545
31.86233
31.80568
31.88704
31.9673
31.94265
31.93499
31.84887
31.8278
31.79212
31.87284
31.87524
31.8639
31.79792
31.70785
31.77261
31.60444
31.70146
31.70951
31.60453
31.65222
31.67482
31.57951
31.58154
31.66104
31.67714
31.70336
31.73853
31.74324
31.71071
31.63888
31.55904
31.64365
31.78903
31.89867
31.92904
31.96452
31.9362
31.90506
31.93709
31.80479
31.6536
31.74044
32.06592
32.07467
32.01282
31.99906
31.96361
31.94645
31.82896
32.01711
31.75763
31.83662
31.72221
31.85095
31.93122
31.73554
31.80623
31.83201
31.87737
31.88412
31.89171
31.81519
31.69487
31.84496
31.72466
31.70283
31.76245
31.65623
31.70686
31.7261
31.82742
31.72022
31.73995
31.7442
31.75742
31.80033
31.71019
31.72113
31.73109
31.76375
31.8089
31.81386
31.73825
31.86342
31.85735
31.88798
31.94687
31.87757
31.86737
31.89892
31.84019
31.80773
31.96043
31.95377
31.94624
31.97856
31.9576
31.93489
31.97012
31.96525
31.91586
31.97549
31.91274
32.04146
32.00921
31.99821
31.96699
31.93816
32.07082
31.94549
32.01132
32.00321
31.86403
31.90394
31.75865
31.86629
31.81032
31.77659
31.79345
31.79141
31.6982
31.70403
31.72752
31.75483
31.7463
31.76989
31.75853
31.81272
31.76596
31.81462
31.81052
31.72212
31.72845
31.64392
31.55878
31.64346
31.6782
31.84903
31.87632
31.84891
31.77804
31.6777
31.9032
31.87983
31.82793
32.01253
31.93289
31.92079
32.02087
31.96655
32.02862
32.01899
32.01373
32.04303
32.02117
31.97423
31.93576
32.01358
31.84487
31.80384
31.81323
31.79737
31.80063
31.80174
31.845
31.82544
31.85393
31.88042
31.89229
31.86329
31.8429
31.87593
31.82122
31.78383
31.8972
31.87902
31.94804
31.90937
31.90129
31.92395
31.96127
31.92929
31.94836
31.96727
32.00715
31.98234
31.96995
32.00205
32.00056
31.97059
32.05891
32.10955
32.13089
32.07607
32.00154
32.14287
32.16855
32.03536
31.88014
31.90929
31.93288
31.89768
31.92725
31.9574
31.84444
31.81455
31.83452
31.79051
31.83373
31.87395
31.86303
31.82039
31.81049
31.86222
31.92881
31.89846
31.93621
31.96454
31.97639
31.94888
32.05947
32.02057
31.96375
31.93408
32.01377
32.01732
31.93145
32.01909
32.01388
31.85124
31.79841
31.97443
31.93598
31.87959
31.83393
31.89229
31.89489
31.84764
31.84567
31.8007
31.70697
31.72477
31.8255
31.854
31.74008
31.74436
31.86337
31.84301
31.72132
31.7313
31.78395
31.94461
31.88471
31.88836
31.94732
31.84415
31.91145
31.89968
31.9036
31.90156
31.90987
31.94271
31.89896
31.92962
31.95261
31.97224
31.97462
31.92381
31.97595
31.97441
31.91869
31.97119
31.97048
32.05974
32.11025
32.04284
32.01081
32.00937
32.15184
32.08813
31.96014
31.88112
31.90613
31.97561
31.86451
31.89891
31.92896
31.8695
31.81376
31.81645
31.85631
31.7462
31.76697
31.81048
31.76752
31.84465
31.83539
31.85901
31.90531
31.74075
31.65393
31.8051
31.93736
32.00169
31.97372
31.92282
31.87701
31.9849
32.04787
31.91166
31.88489
31.913
31.9154
31.94175
31.91731
31.85368
32.07488
32.01305
31.77651
31.94671
31.82928
31.71047
31.79889
31.92479
31.75666
31.74375
31.82627
31.83541
31.8063
31.79837
31.84779
31.89585
31.86989
31.88431
31.69575
31.67324
31.75706
31.8138
31.80342
31.816
31.72989
31.76662
31.70737
31.80956
31.75948
31.77974
31.83382
31.73305
31.83706
31.78169
31.75154
31.81004
31.76733
31.81335
31.75618
31.86925
31.84229
31.79984
31.86407
31.85785
31.96168
31.95484
31.84457
31.90111
31.88153
31.94601
31.98331
31.87393
31.89042
31.97773
31.91471
31.77465
31.92234
32.03029
32.04944
32.00537
31.97568
31.92952
31.98793
31.9625
31.82376
31.89079
31.92041
32.0422
31.90709
31.84334
31.76321
31.77049
31.83864
31.74516
31.79942
31.76689
31.66111
31.75757
31.71101
31.7214
31.73628
31.67588
31.69577
31.76085
31.78189
31.87974
31.90323
31.67751
31.82766
32.05947
31.94876
31.97615
32.02059
31.92296
31.97386
32.00197
31.87735
31.73847
31.78059
31.85365
31.78038
31.73823
31.96765
31.93574
32.1751
31.91441
31.71157
31.72319
31.89456
31.83628
31.74176
31.72087
31.77405
31.7405
31.77211
31.7057
31.65574
31.79747
31.87916
31.6818
31.70864
31.70002
31.68676
31.78779
31.8695
31.87317
31.85298
31.7933
31.66744
31.77312
31.83899
31.81343
31.70624
31.68255
31.66624
31.69687
31.7313
31.71709
31.68342
31.64873
31.69485
31.75512
31.80363
31.74458
31.68257
31.66035
31.69767
31.69731
31.62793
31.73692
31.69174
31.64016
31.84973
31.83404
31.79579
31.87138
31.76805
31.76686
31.78399
31.85431
31.81564
31.78596
31.91519
31.94102
31.92004
31.95445
31.95576
31.95961
31.97467
31.94231
31.92043
31.97725
31.96819
31.8696
31.86419
31.92246
31.94488
31.9176
31.84397
31.93078
31.92525
31.92972
31.91659
31.87272
31.76557
31.82869
31.89436
31.94152
31.81752
31.87484
31.78812
31.75838
31.86341
31.77426
31.7264
31.74455
31.77722
31.87096
31.74317
31.73852
31.70331
31.7106
31.71721
31.70513
31.79969
31.83611
31.79974
31.70516
32.06776
31.91908
31.70059
31.92133
31.75213
31.87907
31.82409
31.74236
31.86061
31.8971
31.86012
31.81087
31.79782
31.72458
31.68573
31.7515
31.61785
31.65431
31.63388
31.5824
31.66574
31.74336
31.76644
31.80618
31.8164
31.82339
31.70435
31.69057
31.6787
31.71567
31.73462
31.71205
31.78472
31.77708
31.80022
31.72893
31.70383
31.79895
31.78064
31.80955
31.80323
31.79394
31.8131
31.70876
31.72818
31.64096
31.59123
31.57135
31.64164
31.8443
31.86717
31.73522
31.79351
31.78229
31.74415
31.81705
31.89064
31.75724
31.67417
31.85707
31.90154
31.78008
31.80833
31.85149
31.90698
31.92586
31.94285
31.81874
31.73427
31.95283
32.04789
31.93396
32.00338
31.9102
31.98893
31.96643
31.93626
31.93697
31.82327
32.03408
31.70954
31.78833
31.55377
31.43806
31.51592
31.86351
31.87105
31.77724
31.7446
31.72647
31.77433
31.76584
31.72835
31.72203
31.81037
31.81448
31.8623
31.81041
31.82036
31.86309
31.85927
31.83561
31.84479
31.7677
32.18595
32.23944
31.92615
31.87201
31.86785
31.90771
31.87179
31.87605
31.88206
31.8262
31.78044
31.84764
31.79436
31.73134
31.72371
31.71545
31.63707
31.71037
31.71408
31.71811
31.70461
31.75536
31.79524
31.71209
31.71604
31.91428
31.80168
31.87813
31.86264
31.91626
31.79967
31.85174
31.73635
31.68343
31.68587
31.79152
31.89233
31.85536
31.74052
31.73985
31.66557
31.61996
31.67136
31.74161
31.79282
31.71148
31.63859
31.76325
31.71288
31.62933
31.73047
31.85719
31.90578
31.77202
31.72294
31.84193
31.87017
31.85874
31.73654
31.71157
31.71782
31.7677
31.72976
31.78641
31.7998
31.82866
31.79551
31.82316
31.83195
31.87672
31.85164
31.8948
31.92591
31.89658
31.84004
31.77681
31.80853
31.67735
31.67826
31.72375
31.77578
31.76187
31.70118
31.98905
32.03419
31.82312
31.93678
31.93617
31.96638
31.70783
31.7979
31.86389
31.77259
31.78817
31.87487
31.81752
31.94154
31.89443
31.75842
31.79136
31.75479
31.7275
31.70399
31.69814
31.87397
31.83371
31.79051
31.83453
31.7463
31.85638
31.81052
31.76703
32.1126
32.07639
31.87107
31.82468
31.93578
32.25243
32.07732
31.87202
31.82074
31.88369
31.9405
31.90641
31.85844
31.94211
31.93721
31.88468
31.94158
31.88683
31.92781
31.96328
31.93442
31.88477
31.88732
31.91865
31.94716
31.8813
31.83066
31.8864
31.88878
31.83263
31.83513
31.8911
31.85191
31.77631
31.77664
31.82491
31.83471
31.83696
31.91886
31.93596
32.03912
32.01875
31.95713
32.04048
32.00314
31.93848
32.04217
31.83003
31.93783
31.92076
31.91124
31.95738
31.80961
31.79577
31.83448
31.94167
31.79845
31.91021
31.91469
31.89384
31.82282
31.78764
31.76672
31.75441
31.80534
31.91611
31.93298
31.8403
31.84547
31.80467
31.85082
31.8544
31.7583
31.72354
31.78171
31.85207
31.79472
31.89179
31.94829
31.82489
31.78872
31.84323
31.86865
31.8233
31.84694
31.96323
31.98677
31.96339
31.96184
31.95334
31.98204
32.00326
31.91616
31.93006
31.89849
31.84229
31.83819
31.87428
31.72685
31.71564
31.90084
31.84424
31.68199
31.93402
32.04793
31.95291
31.91039
32.00347
31.93498
31.87524
31.87284
31.79211
31.82778
31.84886
31.86402
32.00321
32.01131
31.90393
31.90711
32.04221
31.92043
31.84336
32.17683
31.89374
31.91672
32.15544
31.88895
31.924
31.98844
31.9332
31.90675
32.01782
31.95612
31.93351
31.99367
31.95928
31.98977
31.92884
31.91081
31.86158
31.84143
31.90101
31.85325
31.84961
31.90352
31.98099
32.03326
32.07199
32.06394
31.96237
31.98406
32.00342
31.82098
31.82513
31.85566
31.92916
31.81426
31.79477
31.78512
31.7665
31.82048
31.93674
32.00854
31.85148
31.82706
31.88436
31.97276
31.9773
31.89486
31.91032
31.92832
32.01057
31.90134
31.8523
31.99091
31.98475
32.00334
31.86409
31.83932
31.97922
31.98295
31.89847
31.76494
31.81467
31.77409
31.81307
31.9673
31.88704
31.80568
31.94265
32.00538
32.04945
32.0303
31.97569
31.84398
31.91761
31.94489
31.92973
31.92527
31.93079
32.2292
31.99154
32.03431
32.27232
31.97244
31.93971
31.99696
32.02128
31.90439
31.93299
31.91674
31.96041
31.99653
31.93092
31.97471
32.00653
31.92269
31.97047
31.89475
31.84393
31.95101
32.03
32.09118
32.0812
32.09343
31.84635
31.84498
31.88434
31.93168
31.90436
31.87677
31.83651
31.79798
31.738
31.67887
31.72399
31.78355
31.88424
31.9282
31.91007
31.89444
31.97686
31.97248
31.96312
31.84671
31.82339
31.86887
31.84328
31.83198
31.82318
31.79552
31.85166
31.87677
31.90906
31.90976
31.89625
31.96478
31.85149
31.73427
31.81874
31.94286
31.92587
31.90699
32.07082
31.93816
31.96699
31.99821
31.94549
32.16856
32.14288
32.00154
32.03536
32.08814
32.15184
32.00937
31.96014
31.92953
31.8908
31.82377
31.9625
31.98794
32.29541
32.05655
32.0664
32.30569
32.04439
32.02184
32.03232
32.05441
31.98916
31.94424
31.95451
32.00017
31.88789
31.91744
31.97491
31.91611
31.89066
31.99232
31.99657
31.92844
31.92121
32.10028
32.12297
31.99804
32.12277
32.10006
31.87004
31.88646
31.911
31.93803
31.90441
31.87677
31.84436
31.72411
31.78362
31.80856
31.7667
31.82071
31.85153
32.00858
31.93682
31.82716
31.96416
31.88357
31.80527
31.85148
31.94699
31.79571
31.88131
31.75847
31.81718
31.7901
31.78961
31.73475
31.79835
31.7095
31.73371
31.90396
31.95332
31.89951
31.91521
31.97468
31.95961
31.95577
31.97725
31.92043
31.94231
32.30624
32.06688
32.05744
32.29627
32.0549
32.03279
32.02269
32.04528
31.94488
31.98991
32.00059
31.95487
31.89093
31.91629
31.97522
31.91785
31.8884
31.99247
31.97069
31.89489
31.92129
31.95127
32.09378
32.08154
32.09138
32.03023
31.81039
31.84509
31.88444
32.00527
32.00366
31.82127
31.79513
31.84061
31.91524
31.89442
31.88466
31.81466
31.78164
31.72349
31.75829
31.85442
31.85203
31.84188
31.71779
31.71155
31.73652
31.85874
31.87015
31.88283
31.87302
31.80153
31.87831
31.78231
31.67417
31.75724
31.89065
31.81707
31.74417
31.96525
31.97012
31.93489
31.9576
31.91586
32.00716
31.96727
31.94836
31.98234
31.97463
31.97224
31.95261
31.92381
31.88154
31.89042
31.87393
31.98331
31.94601
31.99179
32.22944
32.2729
32.0349
32.02187
31.99752
31.93997
31.9727
31.96091
31.91718
31.93324
31.90464
31.9968
31.98995
31.98995
31.92902
32.00677
31.86177
31.84163
31.8441
31.92288
31.90368
31.96252
32.06407
32.07209
32.03334
31.98112
31.98445
31.9494
31.92124
31.91179
31.91764
31.8561
31.80529
31.75434
31.7666
31.78754
31.82276
31.91608
31.7719
31.90566
31.85709
31.72284
31.70096
31.72878
31.62801
31.644
31.59481
31.81116
31.84193
31.77321
31.80874
31.81566
31.85433
31.78401
31.76689
31.7681
31.78601
32.15553
31.91681
31.89377
32.17686
31.90685
31.93331
31.98853
31.92406
31.88899
32.01799
31.94971
31.93449
31.99385
31.95946
31.94272
31.91891
31.94744
31.91101
31.84984
31.89141
31.85224
31.85351
31.93855
32.00321
32.04053
32.0422
31.94166
31.83443
31.7957
31.80954
31.95736
31.59068
31.64885
31.77758
31.67487
31.62097
31.67253
31.71321
31.78003
31.81174
31.80585
31.76283
31.73264
31.75061
31.7014
31.63263
31.61022
31.64583
31.71238
31.87758
31.80774
31.8402
31.89893
31.86738
31.87903
31.89722
31.90939
31.94807
31.90361
31.8997
31.91148
31.84418
32.07729
32.25242
31.93577
31.87199
31.88464
31.9372
31.94212
31.94154
31.92784
31.8869
31.93438
31.96323
31.88887
31.88648
31.83068
31.88129
31.77666
31.77634
31.83704
31.83477
31.82494
31.91937
31.85123
31.87286
31.95776
31.85534
31.8923
31.79147
31.74049
31.74105
31.75387
31.80174
31.73073
31.7992
31.79431
31.73058
31.80645
31.74793
31.77609
31.81613
31.80146
31.64459
31.63794
31.74701
31.75075
31.69667
31.81388
31.80892
31.76377
31.73828
31.7562
31.81339
31.76738
31.81008
31.75156
32.23967
31.92638
31.82485
32.11278
31.82092
31.90795
31.87204
31.85864
31.87838
31.82646
31.78072
31.84619
31.8075
31.73167
31.7241
31.7704
31.81061
31.71208
31.79523
31.75535
31.71604
31.80167
31.91425
31.91623
31.86263
31.87815
31.80063
31.73217
31.67982
31.71698
31.72762
31.687
31.77926
31.70585
31.78647
31.75238
31.73331
31.7194
31.69798
31.66514
31.77693
31.77813
31.66401
31.78171
31.83712
31.73314
31.83385
31.77973
32.18627
31.93423
31.75624
31.87233
31.86818
31.76149
31.81119
31.87638
31.88241
31.89751
31.86057
31.84801
31.79477
31.79832
31.72514
31.71591
31.63758
31.65494
31.63461
31.71553
31.70521
31.74344
31.82345
31.81644
31.80626
31.76653
31.70563
31.71752
31.7077
31.68423
31.70829
31.71359
31.66844
31.65146
31.72819
31.75727
31.65126
31.75947
31.80953
31.70737
31.76665
31.72994
31.91866
32.06735
32.17547
31.91478
31.92136
31.70062
31.91911
32.0678
31.82363
31.87863
31.89494
31.8367
31.82412
31.87911
31.75216
31.74239
31.86106
31.77453
31.74103
31.81136
31.75205
31.70629
31.65641
31.68635
31.61856
31.60818
31.68103
31.6859
31.7052
31.66656
31.70006
31.70869
31.68184
31.6868
31.86848
31.7869
31.84892
31.89717
31.79337
31.85305
31.87321
31.86953
31.78783
31.69486
31.81515
31.89167
31.84494
31.84765
31.8949
31.89231
31.8457
31.75712
31.67329
31.69578
31.81602
31.80343
31.81382
31.93616
31.98465
31.88463
31.71198
31.91172
32.04793
31.98496
31.88495
31.72361
31.91273
31.917
31.74223
31.94182
31.91546
31.91306
31.91737
31.7214
31.72989
31.67595
31.7727
32.01274
32.07459
32.06585
31.99899
32.01312
32.07495
31.85374
31.77658
31.82888
31.94637
31.96354
32.01703
32.01381
31.93413
31.96382
32.01739
31.82935
31.94678
31.92485
31.79895
31.71053
31.75755
31.73546
31.93114
31.85088
31.72214
31.83655
32.01369
32.01894
32.02862
32.04302
32.01391
32.01913
31.93152
31.85129
32.01358
31.93573
31.97419
32.02116
31.87962
31.93601
31.97445
31.79846
31.83398
31.77348
31.91459
31.91089
31.88653
31.88767
31.98417
31.88414
31.91221
32.06508
31.88369
31.84001
32.03577
32.05037
31.91644
31.85273
31.72929
32.01254
31.93294
31.9208
31.79756
31.70922
31.63266
31.79668
31.67584
31.93384
31.97267
32.01157
32.01956
31.9333
31.97215
31.87658
31.83145
31.7959
31.80037
31.82321
31.74148
31.68019
31.65569
31.68025
31.60744
31.68504
31.70431
31.69832
31.78583
31.79124
31.87053
31.86719
31.78576
31.80071
31.89574
31.88958
31.89229
31.85397
31.87067
31.86729
31.80085
31.81087
31.85047
31.84252
31.69367
31.69374
31.84261
31.84492
31.65633
31.67
31.69264
31.62659
31.93388
31.75587
31.76111
31.8108
31.79734
31.71481
31.74128
31.82119
31.70418
31.71607
31.69036
31.71618
31.80358
31.66728
31.81327
31.70612
31.68241
31.70638
31.7119
31.66608
31.64921
31.69666
31.64931
31.75375
31.72584
31.70652
31.75428
31.7257
31.64859
31.80443
31.72039
31.80464
31.703
31.87813
31.84591
31.80717
31.77
31.79344
31.71795
31.7045
31.63697
31.7102
31.71389
31.75333
31.8758
31.7993
31.91324
31.85984
31.73111
31.91143
31.73437
31.6785
31.71543
31.72627
31.69456
31.66189
31.68318
31.71684
31.77663
31.75477
31.77349
31.66209
31.75446
31.77692
31.75058
31.77365
31.82914
31.77327
31.72634
31.82768
31.77395
31.82946
31.93481
32.25147
31.9362
31.96208
31.94101
31.87982
31.93309
31.82902
31.77445
31.83237
31.82251
31.8349
31.82271
31.77452
31.85063
31.87218
31.93141
31.87372
31.88839
31.78703
31.75255
31.79737
31.72819
31.68216
31.66007
31.80324
31.74416
31.77215
31.72779
31.79847
31.8126
31.74207
31.63359
31.77264
31.8063
31.80183
31.84543
31.81594
31.80656
31.80221
31.75774
31.84557
31.8162
31.745
31.80071
31.91573
32.15446
32.17587
31.89276
31.94945
31.92289
31.92658
31.98729
31.94241
31.93419
31.88549
32.01838
31.95684
31.91862
31.93564
32.03873
31.95352
32.03729
32.00041
31.6738
31.80491
31.77653
31.79078
31.5887
31.67064
31.61934
31.67335
31.71061
31.77755
31.7409
31.63766
31.58928
31.64759
31.77806
31.74696
31.7601
31.82653
31.79927
31.86869
31.83066
31.89885
31.88108
31.93642
31.89902
31.81419
31.82711
31.7997
31.74661
31.60552
31.66751
31.86475
31.88452
31.83097
31.9714
31.99054
31.90573
31.90323
31.93862
31.93213
31.99583
32.02025
31.95914
31.9721
31.93163
31.91533
31.98961
31.90104
31.9597
31.88244
32.06812
31.90077
31.94891
32.03006
32.06853
31.81713
31.78143
31.91699
31.75969
31.82005
31.74678
31.89596
31.6253
31.84625
31.72605
31.57038
31.64082
31.70796
31.72732
31.63997
31.59023
31.66668
31.75088
31.64937
31.65032
31.75184
31.73476
31.76778
31.69728
31.83296
31.80112
31.9443
31.90246
31.90932
31.9219
31.91002
31.9217
31.80208
31.76575
31.90324
31.79328
31.75003
32.06552
32.30483
32.29453
32.05565
31.98793
32.02074
31.88637
31.94286
31.96454
31.97315
31.91576
31.91444
31.88916
31.98602
31.94855
32.09079
31.82441
31.85506
31.98355
32.00283
31.82031
31.80938
32.00449
31.88364
31.84421
31.8101
31.84006
31.7484
31.74597
31.79741
31.89269
31.88386
31.74943
31.83861
31.84397
31.82739
31.77065
31.71392
31.71732
31.76348
31.82292
31.72439
31.69513
31.70312
31.82858
31.85571
31.8426
31.71873
31.86557
31.76224
31.84844
31.87426
31.79231
31.85571
31.92075
31.83745
31.92166
31.83874
31.85685
31.9079
31.86276
31.79584
31.87583
31.94578
31.89832
31.98326
31.94617
31.94699
31.99938
32.0317
32.03124
31.99896
32.0216
32.04427
32.05391
31.98871
31.94354
31.95351
31.88943
31.88691
31.97486
31.9162
31.91461
31.97346
31.98608
31.99547
32.12006
31.84553
31.931
31.9036
31.87598
31.86928
31.93729
31.91034
31.88577
31.78261
31.80757
31.8357
31.80841
31.93794
31.87004
31.843
31.9993
31.92793
31.81945
31.88271
31.96332
32.00034
31.84401
31.94579
31.75611
31.66827
31.73132
31.81503
31.8796
31.84241
31.88232
31.94309
31.8756
31.87759
31.88397
31.94499
31.92468
31.92667
31.65345
31.70473
31.79632
31.88781
31.93896
31.96679
31.92945
31.97493
32.00422
31.96725
31.97953
31.93032
31.88769
31.91173
31.88967
32.02088
32.03396
32.05649
31.9909
31.97175
31.93895
31.99646
31.95974
31.90351
31.93198
31.91588
31.93134
31.97509
31.88274
31.94874
32.02757
32.08821
32.07821
31.93182
31.86938
31.93746
31.90383
31.87615
31.8457
31.93124
31.88378
31.84435
31.84646
31.83656
31.67774
31.72295
31.7971
31.73698
31.67779
31.83578
31.78273
31.72305
31.71589
31.71592
31.87403
31.86705
31.71703
31.8751
31.91824
31.67899
31.71725
31.88024
32.01392
31.89824
31.96198
31.96485
31.88149
31.82243
31.78658
31.7926
31.88961
31.94621
31.8464
31.82611
31.85199
31.83114
31.8491
31.80568
31.8309
31.79404
31.81642
31.81904
31.71696
31.79309
31.69864
31.80428
31.91275
31.89603
31.89841
31.87233
31.86386
31.97886
31.85786
31.88472
31.94437
31.98033
31.94606
31.89404
31.87475
31.88683
31.84359
31.89901
31.88805
31.86692
31.91753
31.90594
31.91595
31.89294
32.17604
32.15468
31.88812
31.95625
31.93233
31.98755
31.9724
31.93363
31.9007
31.84114
31.86134
31.84937
31.85296
31.9014
31.96003
31.90134
31.97884
32.0681
31.90075
32.11832
32.06898
32.06118
32.03053
31.80949
32.0046
32.00289
31.82038
31.78546
31.82557
31.92817
31.9995
31.84313
31.81961
31.87402
32.00107
31.87572
31.96321
31.9297
31.88
31.8756
32.00817
31.87771
31.90092
31.96645
31.91869
31.89894
31.88273
31.85199
31.81777
31.99082
31.86328
31.89077
31.97334
31.92176
31.97711
31.83691
31.76085
31.85347
31.76391
31.80416
31.82761
31.84086
31.89026
31.90258
31.83134
31.89369
31.87381
31.76817
31.8454
31.9422
31.86588
31.98824
31.97047
31.90425
31.97314
31.991
31.78868
31.86554
31.94545
32.07654
31.87123
31.88385
31.90625
31.94032
31.88352
31.8206
31.85829
31.92686
31.94123
31.92314
31.90661
31.94068
31.88764
31.88581
31.93338
31.96233
31.82941
31.88512
31.83552
31.7749
31.9364
31.94928
32.00091
31.82322
31.83305
31.77504
32.01833
32.03868
31.93558
31.91857
31.95679
31.93836
32.03784
32.03963
32.01937
31.95427
31.79027
31.82938
31.93727
31.81797
31.78247
31.79166
31.83062
31.80583
31.82157
31.74799
31.79925
31.75073
31.71543
31.94644
32.01561
31.82271
31.89006
31.79297
31.78687
31.84679
31.98793
31.98196
31.83269
31.85021
31.80665
31.82633
31.94947
31.83219
31.98641
31.95359
31.92909
31.88875
31.89416
31.71131
31.83695
31.96367
31.92049
31.90987
31.85019
31.84327