/*--------------------------------*- C++ -*----------------------------------*\
| =========                 |                                                 |
| \\      /  F ield         | OpenFOAM: The Open Source CFD Toolbox           |
|  \\    /   O peration     | Version:  5.x                                   |
|   \\  /    A nd           | Web:      www.OpenFOAM.org                      |
|    \\/     M anipulation  |                                                 |
\*---------------------------------------------------------------------------*/
FoamFile
{
    version     2.0;
    format      ascii;
    class       volScalarField;
    location    "30/tissue";
    object      T;
}
// * * * * * * * * * * * * * * * * * * * * * * * * * * * * * * * * * * * * * //

dimensions      [0 0 0 1 0 0 0];

internalField   nonuniform List<scalar> 
87936
(
32.88446
33.18214
33.20078
33.13385
32.87414
33.16345
33.18259
33.11421
32.85914
33.12494
33.1437
33.07435
32.85574
33.07393
33.09127
33.01993
33.01099
33.03004
32.83877
32.943
32.96705
32.75746
32.87121
32.90967
32.70635
32.70256
32.8635
32.69402
33.33306
33.81567
34.19999
34.51401
34.57065
34.38133
34.07348
33.40794
33.00925
33.30764
33.77488
34.16891
34.47466
34.53168
34.34291
34.03968
33.39354
33.03114
33.15015
33.66695
34.10748
34.39511
34.4529
34.26331
33.96642
33.36248
33.02126
33.51209
34.03461
34.29091
34.35008
34.16037
33.86612
33.3608
32.93093
33.38764
33.95337
34.17311
34.23471
34.05393
33.75844
33.30543
32.84894
33.28038
33.8463
34.04847
34.11433
33.93992
33.64717
33.22711
32.77174
33.18399
33.72256
33.91799
33.9874
33.82997
33.52644
33.1393
32.69687
33.09591
33.58965
33.7891
33.84239
33.71595
33.38851
33.03858
32.62881
33.02559
33.45057
33.65342
33.69021
33.57922
33.19136
32.91743
32.99025
33.3134
33.52308
33.56123
33.44415
33.06448
32.72363
32.89094
33.16072
33.39761
33.43583
33.31305
32.95619
32.59161
32.76978
32.99615
33.27893
33.31922
33.17714
32.90232
32.4878
32.64988
32.88249
33.15715
33.20549
32.9887
32.79958
32.42302
32.45151
32.806
33.01088
33.07789
32.85895
32.68582
32.34987
32.66154
32.82016
32.86352
32.74609
32.55306
32.59753
32.7178
32.74449
32.67305
32.37328
32.38873
32.50573
32.29309
33.63224
34.49722
35.14947
35.80116
36.0691
36.07999
35.90733
35.42941
34.86844
34.14792
33.26298
33.60677
34.44932
35.08827
35.6905
35.92971
35.93876
35.79283
35.35718
34.81794
34.12791
33.24296
33.55508
34.3756
34.97807
35.5157
35.72547
35.73438
35.60512
35.2293
34.73146
34.08646
33.20659
33.48821
34.27969
34.85438
35.35515
35.51424
35.52608
35.44782
35.08658
34.63307
34.01058
33.15376
33.41276
34.17612
34.73116
35.13656
35.36435
35.39861
35.30722
34.94649
34.52522
33.91657
33.0877
33.33251
34.06855
34.61205
34.97789
35.20195
35.23244
35.15144
34.80655
34.41125
33.81066
33.01164
33.24987
33.95
34.48557
34.83226
35.05976
35.06574
34.96724
34.66766
34.27079
33.6786
32.92126
33.16594
33.82199
34.36086
34.69794
34.88807
34.9103
34.80862
34.53714
34.12538
33.46838
32.79647
33.11034
33.70552
34.24063
34.57047
34.74606
34.76376
34.68087
34.41564
33.9807
33.33342
32.69836
33.01358
33.60572
34.12146
34.44439
34.63565
34.65606
34.56206
34.30269
33.85226
33.20305
32.63339
32.84699
33.49251
33.98786
34.31925
34.52386
34.55022
34.44111
34.18402
33.72887
33.09113
32.71199
33.32914
33.84662
34.204
34.4038
34.43728
34.317
34.06523
33.59822
32.99393
32.57281
33.13799
33.70071
34.08253
34.27215
34.31031
34.18996
33.92308
33.47264
32.92603
32.4911
32.99194
33.56914
33.94142
34.13961
34.17476
34.06121
33.77208
33.35067
32.82855
32.85789
33.43559
33.78963
33.99679
34.02748
33.914
33.62157
33.18141
32.62837
32.82502
33.26474
33.6006
33.80622
33.83619
33.72279
33.45928
32.98037
32.48231
32.42816
32.87598
33.31314
33.4799
33.50282
33.40743
33.14599
32.76707
32.61999
32.88029
33.13359
33.17075
33.05166
32.74179
32.31187
32.20038
32.57089
32.67531
32.71029
32.69949
32.46262
32.33089
32.36885
32.22418
33.18383
34.10517
35.00726
35.90828
36.32288
35.6213
34.48978
33.56982
33.16731
34.0362
34.95848
35.79896
36.12916
35.54224
34.4484
33.56141
33.12334
33.9178
34.86729
35.62008
35.9016
35.4185
34.37008
33.55823
33.81211
34.7579
35.44349
35.71476
35.2638
34.27622
33.43414
33.70878
34.64598
35.32482
35.57778
35.12967
34.17923
33.31958
33.60545
34.53275
35.17582
35.49779
35.36079
34.9744
34.08144
33.21189
33.50179
34.41478
35.0609
35.37541
35.21495
34.78213
33.97893
33.11232
33.40202
34.3002
34.94487
35.27414
35.09202
34.61466
33.87716
33.01857
33.30163
34.18596
34.83467
35.18278
34.9899
34.48748
33.77411
32.92239
33.19941
34.05489
34.71468
35.01679
35.15131
34.87636
34.36838
33.6592
32.8224
33.10218
33.90471
34.59279
34.90899
35.05988
34.7862
34.24274
33.51374
32.71837
33.03591
33.76865
34.39999
34.82566
35.04968
34.95126
34.69026
34.11847
33.35575
32.62758
32.88405
33.64059
34.26302
34.71628
34.91617
34.99074
34.83878
34.57062
33.99753
33.2179
32.75283
33.51129
34.13927
34.63097
34.83565
34.96606
34.8789
34.7478
34.41125
33.8648
33.08691
32.6132
33.3572
34.00776
34.52642
34.76469
34.85323
34.84983
34.82611
34.65864
34.25369
33.71285
32.96262
32.51633
33.1655
33.84035
34.30487
34.59074
34.72377
34.70893
34.69094
34.51075
34.07691
33.53263
32.91549
32.86351
33.50396
33.97335
34.37757
34.51936
34.52002
34.4801
34.17839
33.77904
33.16418
32.52448
32.51385
33.09826
33.62117
33.97472
34.139
34.15747
34.07364
33.83498
33.42189
32.83081
32.74117
33.23704
33.59865
33.76866
33.78977
33.70882
33.43152
32.99098
32.45246
32.30922
32.79178
33.18752
33.35759
33.39299
33.29344
32.95704
32.6481
32.31691
32.68939
32.86988
32.98194
32.80304
32.59711
32.24046
32.48244
32.54042
32.37035
34.20592
35.53655
36.3456
35.89473
34.85305
33.5719
34.13012
35.45075
36.1521
35.78419
34.79387
33.54581
34.01431
35.30111
35.9245
35.60481
34.69056
33.50362
33.94113
35.13727
35.70941
35.42359
34.57937
33.43193
33.85471
34.98648
35.58404
35.29285
34.46039
33.34487
33.75451
34.7928
35.41135
35.14146
34.33146
33.25754
33.65246
34.6263
35.2954
35.0212
34.2079
33.16942
33.54801
34.49795
35.19813
34.90928
34.08597
33.07765
33.4338
34.38042
35.10165
34.80686
33.95387
32.9771
33.32306
34.26967
34.95253
35.1518
34.7032
33.83195
32.87958
33.21979
34.15678
34.82454
35.03826
34.59041
33.71007
32.79286
33.12042
34.02939
34.74331
34.98402
34.47254
33.55803
32.70129
32.96301
33.90395
34.62942
34.87618
34.28854
33.40278
32.84188
33.77611
34.53431
34.93057
34.75494
34.15506
33.28215
32.70874
33.62256
34.42063
34.8689
34.65459
34.02366
33.1433
32.60067
33.38611
34.19989
34.68752
34.88557
34.51475
33.84372
33.02647
33.11735
33.89459
34.47991
34.8202
34.63004
34.25221
33.52657
32.72705
32.86723
33.5563
34.20392
34.51896
34.81855
34.68061
34.38487
33.87205
33.14943
32.40406
32.43243
33.1412
33.78296
34.24615
34.48575
34.63052
34.5951
34.59184
34.40549
34.01792
33.50271
32.80715
32.75149
33.37012
33.82965
34.14727
34.36539
34.37801
34.30809
34.00055
33.63227
33.05931
32.3861
32.33384
32.91903
33.44386
33.73902
33.91863
33.94874
33.8494
33.59046
33.23457
32.72818
32.44138
32.92369
33.26698
33.44017
33.49115
33.3849
33.14476
32.73218
32.44433
32.72326
32.87786
32.99389
32.83847
32.65511
32.24866
32.21308
32.38389
32.44017
32.34958
34.06729
35.49577
36.1522
34.72922
33.46646
34.044
35.41996
35.99428
34.69804
33.44147
33.9905
35.30486
35.79677
34.64075
33.39371
33.91651
35.16923
35.61806
34.56165
33.32798
33.82987
35.05788
35.4835
34.46823
33.25082
33.73655
34.93107
35.33802
34.36751
33.17008
33.63272
34.80661
35.18438
34.25814
33.08821
33.51395
34.68667
35.26001
35.00366
34.12872
32.98456
33.39067
34.46775
35.15113
34.8743
33.97067
32.88332
33.27312
34.31828
35.05721
34.76181
33.82192
32.80126
33.11207
34.18264
34.96983
34.65009
33.64941
33.00171
34.0542
34.91068
34.55441
33.48587
32.89843
33.94992
34.80783
34.45623
33.38827
32.7947
33.8491
34.65978
34.89631
34.35469
33.28777
32.68072
33.69196
34.55921
34.82661
34.16405
33.16277
32.53299
33.43792
34.40575
34.71262
33.98115
33.04152
33.18834
34.177
34.73957
34.46003
33.71511
32.75347
32.79015
33.77688
34.43973
34.7015
34.17998
33.29004
32.48273
33.34009
34.1582
34.59541
34.75049
34.4038
33.76794
32.96797
32.9734
33.71965
34.3079
34.68322
34.48754
34.09751
33.40253
32.58161
32.52235
33.22695
33.89639
34.33003
34.55112
34.67127
34.6684
34.63822
34.45135
34.17915
33.63036
32.94444
32.82226
33.43263
33.90863
34.22799
34.36488
34.37397
34.32866
34.0512
33.69804
33.13652
32.44097
32.32199
32.90385
33.39861
33.72375
33.87984
33.90048
33.83323
33.56718
33.11268
32.6867
32.34958
32.8664
33.19909
33.36451
33.38668
33.301
33.00704
32.68047
32.28461
32.65896
32.77466
32.79877
32.69891
32.47113
32.22042
32.30594
33.68622
35.40107
36.0519
34.50934
33.66323
35.3366
35.91564
34.47775
33.61897
35.21716
35.72636
34.41343
33.55858
35.08241
35.55225
34.32606
33.48864
34.95187
35.4197
34.22085
33.41278
34.81541
35.2622
34.08871
33.31869
34.57372
35.09576
33.86869
33.24253
34.41735
35.24793
34.9282
33.75604
33.14574
34.28696
35.15628
34.82049
33.64607
33.04472
34.16551
35.06075
34.71177
33.56076
32.95131
34.07379
34.9605
34.60658
33.4864
32.85113
33.98248
34.90198
34.52237
33.39014
32.7553
33.8786
34.80469
34.42585
33.28079
33.71503
34.64794
34.92425
34.30991
33.10633
33.47247
34.54242
34.84352
34.09903
32.96141
33.35498
34.38368
34.7269
33.922
32.87473
33.11543
34.1503
34.78748
34.4874
33.66677
32.56279
32.77075
33.77853
34.59753
34.24824
33.29104
32.40053
33.3746
34.28275
34.59239
33.8685
32.94626
33.0169
33.89215
34.48361
34.71352
34.25152
33.48882
32.55679
32.58041
33.47423
34.18591
34.66816
34.42528
33.86625
33.05208
33.00893
33.76301
34.32759
34.67987
34.4933
34.1076
33.441
32.5876
32.47967
33.227
33.87459
34.30683
34.51263
34.64737
34.64612
34.62441
34.39875
34.13273
33.61397
32.93157
32.73198
33.38549
33.8324
34.14794
34.30647
34.31155
34.27019
33.96187
33.63143
33.05614
32.359
32.77951
33.2628
33.55415
33.75585
33.79282
33.67328
33.41788
33.01182
32.42851
32.66651
32.93089
33.15288
33.19237
33.01895
32.78853
32.34345
32.29114
32.49035
32.55508
32.42217
33.48277
34.7612
36.26001
35.5697
34.08126
33.45635
34.72456
36.0966
35.49172
34.05876
33.40959
34.65279
35.886
35.36101
34.0075
33.35213
34.56627
35.67966
35.21505
33.93903
33.28409
34.48052
35.55289
35.10495
33.85976
33.19694
34.39334
35.40678
34.98263
33.76204
33.12634
34.30475
35.29686
34.88381
33.65514
34.20808
35.18499
34.78139
33.50658
34.10053
35.10209
34.68766
33.39799
33.95744
35.00126
34.57456
33.29016
33.73698
34.89729
34.45268
33.17127
33.61749
34.77
34.28691
33.07592
33.49837
34.61525
34.95821
34.11466
32.9702
33.4011
34.52055
34.87333
33.99592
32.8517
33.29886
34.43333
34.82243
33.89937
32.73344
33.12557
34.28389
34.67367
33.74995
32.85912
33.95071
34.75591
34.42087
33.39673
32.51407
33.66318
34.57588
34.18838
33.10986
33.2683
34.2517
34.60146
33.81019
32.75262
32.84314
33.83929
34.59848
34.27964
33.37086
32.4373
33.37726
34.27603
34.58282
33.97056
32.99491
32.96934
33.85267
34.52927
34.22104
33.4599
32.52111
32.43673
33.32593
34.1068
34.62095
34.35426
33.75606
32.95693
32.87937
33.6167
34.17988
34.56266
34.6385
34.36999
33.89501
33.22584
32.41986
32.30991
33.05059
33.65105
34.14388
34.35765
34.48825
34.52908
34.43993
34.23712
33.88505
33.3919
32.71539
32.41044
33.05119
33.54583
33.84744
33.99713
34.01621
33.94955
33.7197
33.34343
32.78284
32.37549
32.90358
33.22474
33.3754
33.41298
33.31875
33.04075
32.67685
32.24256
32.55672
32.70599
32.73598
32.67058
32.42408
33.3696
34.45411
36.05294
35.36611
33.71815
33.34779
34.42043
35.92131
35.30169
33.69758
33.30424
34.34421
35.7339
35.18058
33.64994
33.24039
34.21524
35.53106
35.01883
33.58688
33.15407
34.07489
35.38812
34.88557
33.49612
33.06815
33.9522
35.2266
34.65348
33.40181
32.98715
33.854
35.1018
34.49075
33.29472
33.76867
34.98414
34.37818
33.16682
33.67047
34.87188
34.2735
33.05509
33.56272
34.72678
35.11463
34.16805
32.95003
33.45741
34.61698
35.00019
34.06542
32.85116
33.35614
34.53239
34.9348
33.94782
32.75963
33.19296
34.42767
34.84514
33.74374
33.07436
34.32117
34.75985
33.61777
32.93505
34.15351
34.65744
33.48367
32.80787
33.95506
34.86532
34.46851
33.3836
33.6121
34.65457
34.23234
33.05066
33.32343
34.37542
34.73672
33.89939
32.75933
32.96973
34.11067
34.51677
33.52699
32.61034
33.7294
34.54976
34.18862
33.20714
33.29389
34.20376
34.56259
33.79704
32.7724
32.80627
33.78662
34.54712
34.20216
33.32599
32.34352
33.30917
34.16832
34.49119
33.77347
32.89627
32.86716
33.71274
34.33054
34.60031
34.07961
33.26967
32.33635
33.13748
33.84806
34.36841
34.61126
34.16096
33.54131
32.67175
32.51356
33.24361
33.87725
34.31579
34.55244
34.64835
34.64619
34.61599
34.44889
34.1423
33.61606
32.94969
32.692
33.3284
33.76402
34.022
34.23702
34.24988
34.17661
33.91199
33.52612
33.0073
32.30941
32.67347
33.0412
33.41768
33.59873
33.61368
33.53098
33.28666
32.87602
32.31117
32.32653
32.67594
32.82367
32.83745
32.78273
32.584
33.41299
34.24007
35.43976
36.20355
34.68053
33.77128
33.39499
34.21582
35.37544
36.04871
34.64744
33.75418
33.35812
34.16571
35.25951
35.84434
34.58125
33.71359
33.30465
34.10043
35.12794
35.64822
34.5005
33.65633
33.23826
34.02706
35.00985
35.51263
34.41522
33.58723
33.16189
33.94114
34.89928
35.39453
34.31551
33.50792
33.07838
33.84009
34.78424
35.29136
34.1949
33.42276
32.98765
33.70222
34.65882
35.15167
34.0755
33.33083
32.89138
33.54141
34.50266
35.01563
33.94672
33.21729
33.41853
34.35263
34.90834
33.82173
33.09272
33.30411
34.22911
34.79571
33.70168
32.97944
33.1978
34.10492
34.70221
33.58017
32.86944
33.09198
33.99435
34.95645
34.56392
33.3966
32.75983
32.971
33.89418
34.86928
34.47167
33.28096
32.65913
32.82056
33.7634
34.79504
34.36809
33.14232
32.6827
33.56926
34.65161
34.19877
33.03214
33.30982
34.3781
34.77565
33.85585
32.70954
32.97592
34.16549
34.61005
33.51342
32.60796
33.79825
34.66905
34.28311
33.22832
33.41296
34.43077
33.99782
32.83205
32.97832
34.07909
34.4898
33.52326
32.5538
33.67376
34.51053
34.1324
33.14835
33.17571
34.12674
34.48994
33.67879
32.63897
32.65188
33.65045
34.35217
34.63674
34.04892
33.15991
33.12277
33.97142
34.57196
34.25193
33.55349
32.60856
32.48402
33.32545
34.07197
34.58748
34.32084
33.72182
32.97385
32.79458
33.49015
34.09544
34.4444
34.65646
34.58
34.29621
33.79631
33.14212
32.31421
32.86975
33.45771
33.87982
34.21153
34.34404
34.32337
34.31096
34.11205
33.72627
33.1411
32.47004
32.73194
33.13839
33.51724
33.64987
33.65154
33.61534
33.39121
32.99165
32.41943
32.5005
32.76544
32.88146
32.9034
32.83685
32.63442
32.2779
33.46748
34.29697
35.22712
36.23775
35.78976
34.75856
33.8024
33.1347
33.45558
34.2762
35.17487
36.08115
35.69712
34.72593
33.79541
33.13333
33.41511
34.22947
35.08077
35.8788
35.55034
34.6608
33.76393
33.35192
34.16256
34.9728
35.68545
35.39456
34.57742
33.70778
33.27832
34.08226
34.8668
35.56895
35.28466
34.48572
33.63483
33.1973
33.99297
34.75808
35.43803
35.1591
34.3878
33.55186
33.11101
33.89703
34.64501
35.33009
35.04983
34.28421
33.46227
33.02085
33.79369
34.5209
35.21363
34.93596
34.17023
33.36784
32.92838
33.67373
34.39024
35.1127
34.81881
34.03678
33.27154
32.83335
33.48265
34.26961
34.99438
34.69896
33.8984
33.1737
33.37395
34.1376
34.86753
34.46949
33.77942
33.03729
33.26021
34.02213
34.79092
34.34382
33.66712
32.92562
33.15248
33.91008
34.69258
34.23251
33.55658
32.81596
33.04843
33.77808
34.57423
34.97469
34.11741
33.41287
32.70935
32.90801
33.65627
34.48992
34.90009
34.00399
33.24089
32.59162
32.79719
33.49597
34.32248
34.77289
33.81909
33.12612
33.16125
34.0277
34.5328
33.52037
32.81817
32.81375
33.73158
34.69594
34.287
33.15745
33.39158
34.45968
34.02417
32.77438
32.99269
34.14358
34.567
33.57048
32.5905
33.76752
34.6486
34.24105
33.22466
33.33851
34.3128
34.6486
33.92538
32.74263
32.82238
33.95673
34.64855
34.31028
33.37554
33.3747
34.28904
34.61249
33.94274
32.8512
32.84353
33.91193
34.57565
34.22143
33.34755
33.2816
34.09516
34.62122
34.36892
33.69548
32.7646
32.66805
33.59902
34.22095
34.62827
34.4397
33.97264
33.13782
32.94789
33.64787
34.18386
34.53885
34.64986
34.3756
33.97373
33.28866
32.45536
32.96934
33.51913
33.95799
34.26757
34.36582
34.34627
34.32511
34.1531
33.77837
33.24084
32.55126
32.80561
33.33091
33.59011
33.72427
33.7551
33.66511
33.45193
33.04243
32.47564
32.56272
32.79522
32.92555
32.95482
32.8681
32.65523
32.28264
33.53882
34.41582
35.2914
36.27797
35.82169
34.83535
34.00351
33.17557
33.53117
34.36845
35.23258
36.11184
35.72669
34.79001
33.96797
33.15864
33.48713
34.29384
35.13001
35.903
35.5754
34.71135
33.8405
33.13889
33.40224
34.21007
35.01454
35.70056
35.41435
34.6178
33.7648
33.30568
34.11613
34.90181
35.58348
35.29969
34.51768
33.66944
33.21457
34.02025
34.79027
35.44871
35.17094
34.41575
33.57655
33.12526
33.92345
34.6784
35.31726
35.05116
34.31296
33.48407
33.03512
33.8245
34.56229
35.15503
35.35287
34.91444
34.20747
33.3901
32.94371
33.72102
34.43727
35.02118
35.26632
34.74867
34.09475
33.29415
32.85218
33.60047
34.29214
34.92756
35.18298
34.61005
33.95718
33.19822
32.75215
33.41455
34.17411
34.84202
35.08394
34.50758
33.82171
33.0956
33.30605
34.06881
34.74817
35.01051
34.40622
33.71113
32.96596
33.18614
33.95888
34.63858
34.89931
34.2958
33.59657
32.84277
33.0711
33.83193
34.47153
34.81077
34.16169
33.46897
32.72831
32.94751
33.6825
34.35667
34.94676
34.72079
34.03083
33.26814
32.59911
32.83221
33.53103
34.2119
34.81933
34.57671
33.88144
33.15808
32.49882
33.19305
33.92714
34.62482
34.32138
33.58615
32.85587
32.87418
33.58234
34.35314
34.7864
33.90302
33.19798
32.49667
32.49467
33.18178
34.09361
34.55224
33.54386
32.86719
32.81574
33.71336
34.69141
34.257
33.14654
32.46739
33.34792
34.39654
33.94626
32.72593
32.89235
34.03293
34.46698
33.44491
33.50851
34.51212
34.07896
32.95695
33.09174
34.08556
34.48283
33.65352
32.46327
32.5197
33.64419
34.43688
34.06812
33.15029
33.09611
34.00207
34.62073
34.32221
33.60277
32.51621
32.39971
33.38407
34.2207
34.56188
33.91225
33.00961
32.74282
33.65222
34.26611
34.55514
34.00485
33.24645
32.99336
33.67777
34.20616
34.61595
34.39025
33.9899
33.32838
32.51721
32.98914
33.54016
34.08132
34.31106
34.39712
34.44929
34.3752
34.20294
33.80781
33.26393
32.5677
32.80577
33.32428
33.59027
33.72112
33.73984
33.66524
33.45093
33.04056
32.47696
32.3942
32.75007
32.88021
32.89617
32.83749
32.60773
33.46754
34.41589
35.33669
36.2985
35.85377
34.87492
33.94069
33.45568
34.36849
35.27338
36.13002
35.75288
34.82525
33.849
33.41532
34.2939
35.16288
35.92432
35.60747
34.73519
33.80185
33.35224
34.2105
35.04
35.7268
35.44619
34.63471
33.73328
33.27869
34.11687
34.92088
35.59168
35.31792
34.52874
33.65417
33.1977
34.02091
34.80617
35.45579
35.18607
34.42418
33.56739
33.1114
33.92386
34.69629
35.33286
35.06967
34.32176
33.47645
33.0212
33.82488
34.58719
35.21542
34.95074
34.21914
33.38194
32.92864
33.72142
34.47604
35.08609
35.266
34.83091
34.11285
33.28501
32.83351
33.6008
34.34198
34.94789
35.17173
34.67049
33.98339
33.19045
33.41469
34.1988
34.85351
35.09859
34.53402
33.8348
33.06504
33.30619
34.08859
34.77559
35.0293
34.43095
33.72352
32.94805
33.18624
33.97806
34.6679
34.92535
34.32324
33.60717
32.83232
33.07119
33.85508
34.55926
34.99729
34.78835
34.20648
33.47855
32.72187
32.94763
33.70047
34.38393
34.94454
34.70011
34.05742
33.27577
32.5962
32.83224
33.5606
34.22671
34.82577
34.54168
33.90782
33.16697
32.49902
33.20529
33.93635
34.52633
34.80307
34.24445
33.60112
32.87624
32.88904
33.59575
34.22661
34.80899
34.54971
33.9265
33.20968
32.50733
32.50441
33.20785
33.91758
34.58042
34.29313
33.59068
32.88936
32.86104
33.53749
34.30499
34.74279
33.85959
33.17723
32.48181
32.44523
33.13171
34.03453
34.46744
33.49414
32.79563
32.70359
33.57034
34.55184
34.11258
33.06254
33.16061
34.14844
34.60266
33.63159
32.50919
32.6142
33.74609
34.61388
34.2291
33.21716
33.29054
34.20122
34.59783
33.85094
32.64096
32.66206
33.72508
34.55174
34.17908
33.27525
33.19455
34.05725
34.45002
33.67303
32.62482
32.47797
33.4802
34.24195
34.57127
33.94528
33.09035
32.88484
33.67943
34.26347
34.54413
34.01963
33.29074
32.3511
33.0073
33.68619
34.21036
34.61904
34.40013
34.0063
33.33718
32.5401
32.98579
33.52769
33.93981
34.27241
34.35349
34.3466
34.33304
34.15057
33.78007
33.25542
32.56749
32.75803
33.14678
33.50449
33.66319
33.66627
33.61838
33.39467
33.01094
32.4416
32.33825
32.67793
32.84675
32.86172
32.78167
32.58244
33.41302
34.297
35.29144
36.29854
35.83883
34.79067
33.79285
33.39503
34.27623
35.23261
36.13008
35.73842
34.75418
33.77819
33.35818
34.22946
35.12998
35.92449
35.587
34.68578
33.7405
33.30474
34.16247
35.01448
35.72707
35.43099
34.59911
33.68401
33.23835
34.08214
34.90178
35.59197
35.31066
34.50411
33.61337
33.16195
33.9929
34.79031
35.45607
35.18073
34.40413
33.53268
33.07844
33.89699
34.67846
35.3331
35.06325
34.29975
33.44515
32.98772
33.79369
34.5623
35.21559
34.93705
34.18863
33.35268
32.89151
33.67376
34.4373
35.08619
34.82096
34.06401
33.25915
33.48271
34.29219
34.94796
35.16768
34.63636
33.9181
33.13585
33.374
34.17414
34.8536
35.08614
34.52052
33.80096
33.01541
33.26024
34.06884
34.77569
35.02231
34.41899
33.69174
32.90093
33.15251
33.9589
34.66803
34.92291
34.31104
33.58092
32.79618
33.04847
33.83186
34.55956
34.99769
34.79153
34.18944
33.45623
32.68942
32.90809
33.68247
34.38464
34.93172
34.70579
34.04587
33.25801
32.79727
33.53117
34.22727
34.79838
34.54207
33.89514
33.14678
33.19316
33.93652
34.54702
34.79282
34.24998
33.59353
32.84462
32.87432
33.59593
34.24476
34.76615
34.53996
33.9316
33.20533
32.48894
32.49479
33.20831
33.95553
34.52147
34.78861
34.29886
33.60425
32.88218
32.86122
33.57027
34.18074
34.76809
34.50646
33.89143
33.18713
32.47508
32.44534
33.15092
33.84449
34.52538
34.22094
33.51406
32.82075
32.7427
33.45635
34.18981
34.65811
33.77693
33.09174
32.95856
33.7738
34.6614
34.25552
33.2587
32.56469
33.34829
34.3339
33.90818
32.70196
32.76387
33.90854
34.36171
33.38188
33.37514
34.33391
33.90405
32.76154
32.76303
33.85632
34.58885
34.21957
33.35396
33.26133
34.12728
34.50317
33.70501
32.72377
32.53512
33.60117
34.26385
34.55829
33.98232
33.10668
32.8191
33.68475
34.28312
34.57524
34.02555
33.29209
32.99464
33.68314
34.20305
34.5266
34.63713
34.37393
34.00327
33.33149
32.51162
32.94427
33.49631
33.89851
34.22216
34.36349
34.33604
34.31515
34.11775
33.72894
33.19852
32.53565
32.69257
33.08422
33.44238
33.63349
33.65449
33.5341
33.31371
32.9134
32.38632
32.56787
32.75303
32.77536
32.68153
32.40011
33.36959
34.24007
35.22714
36.27799
35.80191
34.71535
33.74672
33.34779
34.21582
35.1749
36.11187
35.7082
34.68233
33.72809
33.30422
34.16569
35.08083
35.90305
35.56025
34.61727
33.68476
33.24035
34.10038
34.97291
35.7006
35.40272
34.53616
33.62576
33.15402
34.027
34.86688
35.58353
35.28978
34.44897
33.55708
33.06812
33.94111
34.75811
35.44876
35.15728
34.35449
33.47261
32.98713
33.84009
34.64502
35.31729
35.0211
34.25137
33.37887
33.70221
34.5209
35.15505
34.86032
34.13187
33.27747
33.54139
34.39024
35.02118
35.25163
34.70927
34.00005
33.15622
33.41852
34.26961
34.92757
35.17187
34.59111
33.87631
33.04413
33.30411
34.1376
34.84203
35.09596
34.4884
33.75005
32.93224
33.1978
34.02213
34.74818
35.0111
34.38717
33.63585
32.81631
33.09198
33.91008
34.63858
34.88184
34.28064
33.51792
32.71234
32.971
33.77808
34.47151
34.99736
34.76885
34.15641
33.33133
32.82057
33.65626
34.35661
34.94464
34.69598
34.04133
33.20026
32.6827
33.49602
34.21183
34.82585
34.55217
33.86813
33.08811
33.16127
33.92713
34.52637
34.77738
34.23438
33.55659
32.77723
32.8138
33.58233
34.22669
34.76626
34.51615
33.93156
33.17846
33.18181
33.9176
34.52158
34.80202
34.21555
33.57632
32.82346
32.81586
33.53754
34.1809
34.71088
34.47317
33.88384
33.16687
33.13183
33.84443
34.42828
34.69241
34.13659
33.50648
32.77725
32.70374
33.45654
34.0599
34.66564
34.37533
33.78375
33.08674
32.95859
33.61072
34.29579
34.70131
33.91216
33.26888
32.55257
33.14266
33.97908
34.40497
33.49668
32.77014
32.5616
33.49881
34.40631
33.98125
32.96386
32.92641
34.02063
34.43618
33.46717
33.45252
34.38416
34.00482
32.86603
32.82266
33.8961
34.58343
34.2305
33.43403
33.24885
34.11118
34.52854
33.70968
32.71871
32.46106
33.51066
34.25371
34.57028
33.97087
33.13301
32.75453
33.66034
34.27152
34.65474
34.51896
34.01961
33.24086
32.9079
33.64601
34.14776
34.47472
34.68376
34.59143
34.31071
33.88751
33.27474
32.40108
32.78141
33.33095
33.81265
34.05648
34.29812
34.30392
34.23658
33.94535
33.61816
33.10171
32.38684
32.46391
32.94177
33.21418
33.45966
33.46562
33.4077
33.10328
32.75312
32.37426
32.5515
32.57407
32.51221
33.48307
34.45401
35.43963
36.23771
35.83888
34.90916
33.95137
33.45671
34.42019
35.37529
36.08111
35.73759
34.86569
33.92704
33.40998
34.34394
35.25933
35.87876
35.58514
34.77724
33.87297
33.35247
34.21514
35.12778
35.68542
35.42896
34.65934
33.80107
33.28429
34.07494
35.00976
35.56893
35.32351
34.53993
33.6686
33.19702
33.95222
34.89922
35.43801
35.19063
34.42804
33.55967
33.12637
33.854
34.7842
35.33007
35.07987
34.3166
33.44828
33.76867
34.6588
35.21361
34.95787
34.21776
33.35833
33.67047
34.50264
35.1127
34.82502
34.10612
33.25575
33.56272
34.35263
34.99437
35.18117
34.72387
33.98303
33.15016
33.45741
34.22911
34.86753
35.06944
34.61872
33.85676
33.04245
33.35615
34.10493
34.79092
35.00881
34.50782
33.68957
32.95249
33.19299
33.99435
34.69257
34.93203
34.41218
33.58766
32.86781
33.07443
33.89417
34.5742
34.84209
34.31234
33.47319
32.93521
33.76327
34.48988
34.94675
34.75412
34.13071
33.34694
32.80808
33.56928
34.32243
34.81932
34.5976
33.94853
33.22385
33.30988
34.02771
34.62481
34.84607
34.3601
33.68298
32.90652
32.97612
33.73148
34.35308
34.80901
34.60577
34.1081
33.37466
32.60829
33.3917
34.0936
34.58043
34.79534
34.34273
33.73153
32.99353
32.9931
33.7132
34.30493
34.76812
34.55367
34.06917
33.3794
32.6182
32.59122
33.3482
34.03454
34.52552
34.73472
34.27618
33.68149
32.95854
32.89302
33.57054
34.18987
34.66562
34.45096
33.96834
33.28692
33.16092
33.77375
34.29572
34.57531
34.07336
33.46866
32.749
32.61426
33.3482
33.97893
34.53222
34.21501
33.59683
32.97574
32.76382
33.49886
34.17861
34.61559
33.87799
33.17272
32.92749
33.77652
34.60021
34.172
33.32256
33.26621
34.15148
34.58275
33.74241
32.61512
33.7027
34.51152
34.09907
33.12162
33.01483
33.98267
34.41873
33.66506
33.42206
34.22697
34.55102
33.88381
32.88714
32.6152
33.68949
34.30453
34.59224
33.97656
33.30588
32.79842
33.70922
34.31348
34.55424
34.01627
33.35668
32.91786
33.57706
34.12624
34.46028
34.68021
34.56352
34.34906
33.91649
33.36116
32.45099
32.73164
33.42165
33.88861
34.1503
34.23487
34.24131
34.23864
34.03208
33.59076
33.14127
32.49804
33.00116
33.284
33.41346
33.47674
33.38605
33.17845
32.82863
32.49809
32.75345
32.68469
32.68832
33.68615
34.76114
36.05311
35.4554
34.1084
33.30964
33.66315
34.72449
35.92154
35.38751
34.08808
33.28527
33.61889
34.65272
35.7341
35.26754
34.03855
33.24266
33.55852
34.56622
35.53113
35.12967
33.97309
33.18532
33.4886
34.4805
35.38812
35.61909
35.02783
33.90089
33.11923
33.41276
34.39332
35.22659
35.47235
34.90848
33.82552
33.05264
33.31867
34.30474
35.10179
35.35239
34.79274
33.75744
32.99533
33.24252
34.20807
34.98413
35.23896
34.67399
33.6863
33.14574
34.10052
34.87187
35.13362
34.55435
33.59507
33.04471
33.95743
34.72677
35.03589
34.37933
33.49265
32.95131
33.73697
34.61698
34.94063
34.20365
33.3792
32.85112
33.61749
34.53239
34.85671
34.09125
33.22078
32.7553
33.49837
34.42767
34.95647
34.72632
33.98831
33.10165
33.40109
34.32117
34.86932
34.62076
33.87699
32.97895
33.29885
34.1535
34.79512
34.50007
33.72256
32.86128
33.12557
33.95506
34.65163
34.88644
34.34515
33.52584
32.75912
32.85913
33.6121
34.37812
34.67919
34.10049
33.26396
32.51408
33.32343
34.1655
34.69607
34.46015
33.74742
32.90819
32.96975
33.79828
34.45976
34.70129
34.15382
33.40323
32.58311
32.61038
33.41301
34.14365
34.6917
34.45671
33.79484
32.99439
32.97842
33.7677
34.39686
34.64621
34.10817
33.39174
32.59562
32.55394
33.33877
34.03367
34.5535
34.28117
33.70411
32.93214
32.82256
33.50917
34.16589
34.65916
34.44264
33.93487
33.2186
32.46104
33.09142
33.74633
34.33222
34.57326
34.05831
33.40285
32.68377
32.51952
33.29036
33.9082
34.40607
34.66074
34.13359
33.5633
32.89169
32.66194
33.375
34.02051
34.60015
34.29104
33.70338
33.01131
32.76296
33.45248
34.15143
34.59516
33.86536
33.16762
32.82263
33.70268
34.51532
34.10282
33.21383
32.46121
33.01482
34.04466
34.51297
33.64655
33.57721
34.36619
33.94348
32.8525
32.68798
33.73751
34.56489
34.15861
33.31289
33.13698
33.969
34.60699
34.32673
33.63693
32.48673
33.26854
34.00244
34.60708
34.3585
33.67081
32.7524
32.32535
33.32308
33.98911
34.45416
34.64119
34.22326
33.69526
32.82191
32.37628
33.18236
33.73688
34.16041
34.43621
34.50561
34.52092
34.49536
34.28177
33.98938
33.44974
32.84805
32.95939
33.34813
33.70283
33.83382
33.86002
33.80058
33.57016
33.18552
32.60311
32.5295
32.93727
33.20784
33.42346
33.46218
33.36683
33.10255
32.75845
32.5196
32.80524
32.99218
32.97086
32.89427
32.68377
32.38255
32.62526
32.55494
32.54789
34.06727
35.40106
36.26001
35.85437
34.7353
33.56588
34.04399
35.33659
36.0966
35.74755
34.69917
33.53565
33.99049
35.21715
35.886
35.59323
34.62785
33.47566
33.9165
35.0824
35.67966
35.41507
34.5331
33.40241
33.82986
34.95186
35.55288
35.28495
34.42508
33.32268
33.73654
34.8154
35.40677
35.09675
34.31219
33.23948
33.63271
34.57371
35.29685
34.96715
34.16671
33.15199
33.51394
34.41734
35.18499
34.85794
34.00824
33.05716
33.39066
34.28696
35.10209
34.75312
33.84836
32.95614
33.27312
34.1655
35.00125
34.64726
33.64033
32.86678
33.11207
34.07379
34.89729
34.56184
33.53879
32.77133
33.0017
33.98248
34.76999
34.999
34.45768
33.44891
32.89843
33.8786
34.61525
34.89474
34.34125
33.35719
32.7947
33.71503
34.52055
34.82393
34.12483
33.24504
32.68073
33.47247
34.43333
34.74933
33.98058
33.10489
32.53299
33.35498
34.2839
34.86533
34.61929
33.84719
32.9113
33.11543
33.95074
34.65459
34.33706
33.48807
32.68796
32.77076
33.66319
34.37544
34.68177
34.0938
33.20976
32.40054
33.26832
34.1107
34.66908
34.43277
33.69768
32.8072
32.84316
33.72943
34.43081
34.6679
34.09079
33.30284
32.44244
32.43732
33.29392
34.07913
34.64866
34.39203
33.71317
32.83938
32.80628
33.67379
34.31285
34.612
34.03568
33.25637
32.40421
32.34352
33.1757
33.9567
34.51204
34.18965
33.57985
32.73671
32.65184
33.37463
34.08546
34.61388
34.40014