/*--------------------------------*- C++ -*----------------------------------*\
| =========                 |                                                 |
| \\      /  F ield         | OpenFOAM: The Open Source CFD Toolbox           |
|  \\    /   O peration     | Version:  5.x                                   |
|   \\  /    A nd           | Web:      www.OpenFOAM.org                      |
|    \\/     M anipulation  |                                                 |
\*---------------------------------------------------------------------------*/
FoamFile
{
    version     2.0;
    format      ascii;
    class       volScalarField;
    location    "30/tissue";
    object      T;
}
// * * * * * * * * * * * * * * * * * * * * * * * * * * * * * * * * * * * * * //

dimensions      [0 0 0 1 0 0 0];

internalField   nonuniform List<scalar> 
87936
(
32.73606
33.13891
33.15837
33.03982
32.73838
33.12249
33.14215
33.02611
32.76747
33.09079
33.10949
33.00676
32.81742
33.04922
33.06872
32.96885
32.97717
33.03118
32.74203
32.93468
33.00775
32.68144
32.90306
32.99721
32.70258
32.80155
32.99358
32.79627
33.21487
33.68216
34.0721
34.44313
34.51247
34.29445
33.93326
33.30635
32.89471
33.16262
33.64247
34.02913
34.40002
34.47249
34.24771
33.89388
33.29004
32.90643
33.01273
33.54158
33.93267
34.30845
34.39077
34.14224
33.80765
33.24981
32.84686
33.31179
33.82832
34.19638
34.28699
34.01314
33.655
33.21478
32.78383
33.22944
33.76578
34.07949
34.16886
33.90413
33.57334
33.16467
32.716
33.14077
33.66661
33.92751
34.02898
33.76529
33.47719
33.09342
32.64826
33.04969
33.52878
33.73781
33.87053
33.60572
33.35635
33.01394
32.58292
32.95846
33.39207
33.54964
33.6845
33.47535
33.21635
32.92486
32.51889
32.8731
33.23982
33.38315
33.47539
33.33177
33.01717
32.79616
32.84862
33.11225
33.29971
33.36648
33.23426
32.8607
32.60136
32.77407
32.99039
33.21166
33.26459
33.13537
32.78407
32.46554
32.66753
32.80808
33.11136
33.16335
33.00573
32.78221
32.39542
32.59092
32.69865
33.00005
33.06006
32.84846
32.71036
32.36839
32.38245
32.69372
32.88137
32.94921
32.68125
32.60133
32.33787
32.58126
32.66314
32.74792
32.58765
32.52548
32.60624
32.67038
32.70706
32.64446
32.42467
32.36958
32.495
32.28726
33.54986
34.42738
35.14768
35.85429
36.07825
36.12498
35.99007
35.4581
34.82147
34.05409
33.12543
33.5305
34.37816
35.07937
35.74099
35.93969
35.97621
35.87458
35.38254
34.76296
34.02984
33.10123
33.48636
34.2989
34.95936
35.57486
35.74633
35.76502
35.69042
35.25324
34.66485
33.98093
33.06079
33.42434
34.20504
34.83733
35.37611
35.53797
35.54437
35.48222
35.10084
34.57199
33.90336
33.00669
33.3515
34.09782
34.70573
35.1493
35.36266
35.40068
35.32092
34.94841
34.46099
33.81013
32.94366
33.27197
33.98626
34.57227
34.97795
35.18964
35.22658
35.1529
34.7945
34.33952
33.70387
32.873
33.18851
33.8641
34.4311
34.82005
35.04942
35.06205
34.96481
34.6399
34.19419
33.57343
32.79079
33.10109
33.73198
34.28384
34.66861
34.89202
34.92584
34.80238
34.48451
34.04019
33.3872
32.68457
33.03982
33.60483
34.14956
34.52698
34.75259
34.79023
34.66625
34.34245
33.88928
33.24469
32.615
32.92541
33.49282
34.01799
34.38167
34.62331
34.66565
34.52666
34.20928
33.74932
33.11248
32.55762
32.72928
33.37164
33.86702
34.21838
34.49294
34.54423
34.37668
34.05872
33.61297
33.00259
32.58569
33.20492
33.70675
34.06605
34.3533
34.41511
34.22115
33.91707
33.46146
32.9075
32.45706
33.00603
33.5224
33.92739
34.20845
34.27716
34.0739
33.75623
33.29643
32.83462
32.38929
32.85059
33.36764
33.78235
34.06587
34.13529
33.93429
33.58927
33.16733
32.7208
32.71035
33.2159
33.62874
33.92749
33.99254
33.79699
33.40964
32.99668
32.48384
32.74244
33.09051
33.45559
33.749
33.80468
33.62538
33.27051
32.8613
32.42477
32.3739
32.80119
33.22016
33.44241
33.48196
33.34104
33.04116
32.71669
32.54788
32.83672
33.0916
33.13878
33.00122
32.68956
32.24671
32.16474
32.55783
32.67581
32.72936
32.69337
32.40586
32.31929
32.3611
32.23287
33.05997
34.0314
34.98865
35.94818
36.37149
35.62467
34.44792
33.52852
33.04586
33.97339
34.93913
35.83676
36.16707
35.5388
34.40876
33.513
33.02431
33.87381
34.84831
35.65432
35.92429
35.4046
34.33459
33.48619
33.76935
34.73929
35.47049
35.74083
35.25058
34.24355
33.34058
33.66867
34.62642
35.33788
35.59357
35.11879
34.14598
33.21831
33.56377
34.51276
35.1822
35.52059
35.38532
34.96575
34.04576
33.10558
33.45639
34.39542
35.05822
35.39652
35.23193
34.78509
33.94112
33.00314
33.35386
34.27823
34.93973
35.29245
35.10674
34.62224
33.83632
32.90741
33.25336
34.15971
34.82938
35.20281
35.00324
34.48899
33.72942
32.81019
33.15436
34.02555
34.7249
35.03061
35.17162
34.88603
34.36256
33.61129
32.71
33.05922
33.8741
34.589
34.91287
35.07624
34.77529
34.23055
33.46866
32.61323
32.97953
33.73301
34.40442
34.83043
35.05718
34.95734
34.68201
34.09917
33.31445
32.54432
32.79908
33.59786
34.26044
34.72441
34.94631
35.0265
34.85688
34.56948
33.9692
33.16766
32.6404
33.45884
34.1225
34.63283
34.86208
35.00366
34.91743
34.77048
34.40937
33.82792
33.03216
32.4897
33.30382
33.98179
34.52352
34.79629
34.9069
34.91189
34.87007
34.68127
34.24939
33.6725
32.90428
32.51647
33.1458
33.81732
34.31188
34.60783
34.74076
34.74331
34.71457
34.52253
34.06759
33.50031
32.87804
32.8517
33.48482
33.97442
34.39569
34.54016
34.55092
34.49796
34.19146
33.76801
33.15407
32.49082
32.45866
33.0874
33.61465
33.99465
34.17892
34.20652
34.10562
33.8375
33.39993
32.80537
32.71878
33.21353
33.60496
33.79479
33.82616
33.72453
33.42578
32.97922
32.40195
32.26477
32.77688
33.17543
33.37045
33.41494
33.29053
32.95434
32.61006
32.28605
32.68803
32.88503
32.99084
32.82081
32.57008
32.24456
32.48613
32.59075
32.3574
34.15997
35.52057
36.40518
35.92732
34.81499
33.503
34.10212
35.43077
36.19668
35.81271
34.75964
33.47437
34.02004
35.27659
35.96413
35.62497
34.66256
33.42321
33.9436
35.10912
35.73048
35.42517
34.55404
33.34931
33.8515
34.95932
35.60477
35.28491
34.43758
33.25961
33.74554
34.7832
35.45737
35.13533
34.31204
33.16782
33.63549
34.62358
35.33158
35.01177
34.18599
33.07633
33.52264
34.49218
35.22545
34.89988
34.05893
32.98288
33.40313
34.37198
35.1418
34.80263
33.92708
32.88178
33.28857
34.25911
34.97876
35.17777
34.69886
33.80412
32.78092
33.1816
34.14456
34.84611
35.06884
34.58565
33.68105
32.68605
33.06818
34.01807
34.74371
35.00772
34.46264
33.5356
32.58436
32.89238
33.88969
34.63753
34.92031
34.29273
33.39119
32.75541
33.75708
34.5436
34.96774
34.7922
34.1579
33.25906
32.60574
33.60769
34.42647
34.91244
34.68129
34.02668
33.11445
32.56151
33.39827
34.21471
34.73553
34.92116
34.51848
33.85034
33.01553
33.1341
33.90141
34.49866
34.85367
34.68375
34.26541
33.53376
32.69113
32.82313
33.55527
34.21726
34.54969
34.85485
34.7226
34.4093
33.88625
33.15785
32.37097
32.36984
33.14386
33.80087
34.27659
34.52884
34.67733
34.63978
34.63884
34.44081
34.0479
33.50554
32.76847
32.71699
33.37633
33.86066
34.19333
34.40677
34.42322
34.35343
34.03858
33.65305
33.06324
32.32857
32.29812
32.9191
33.4525
33.77223
33.95945
33.99812
33.89196
33.61417
33.22981
32.69508
32.40198
32.94017
33.28199
33.47486
33.53608
33.41258
33.14703
32.73062
32.42238
32.74201
32.91303
33.02074
32.87997
32.65449
32.22964
32.24284
32.3952
32.45981
32.36341
34.06893
35.46514
36.22012
34.71876
33.39191
34.04584
35.38571
36.03933
34.68805
33.36249
33.9918
35.26372
35.83311
34.62738
33.30879
33.9153
35.14545
35.66113
34.54526
33.2388
33.82413
35.02161
35.50954
34.4486
33.15835
33.7234
34.89544
35.35699
34.34281
33.07295
33.61018
34.77097
35.19666
34.22785
32.98077
33.48356
34.64539
35.28948
34.99626
34.09557
32.86484
33.35427
34.45438
35.18706
34.86234
33.94368
32.75769
33.22031
34.30986
35.08281
34.74693
33.79928
32.67782
33.06039
34.17761
35.00335
34.63944
33.64287
32.93733
34.05228
34.94331
34.54054
33.5025
32.82376
33.94501
34.83734
34.43924
33.39501
32.70516
33.83554
34.67299
34.94487
34.33476
33.27815
32.57515
33.68646
34.56913
34.87756
34.16675
33.13958
32.53454
33.46763
34.4029
34.74573
33.98709
33.02039
33.21747
34.15978
34.76958
34.44422
33.71456
32.72493
32.76375
33.78198
34.45245
34.74287
34.17664
33.31233
32.42816
33.35918
34.16456
34.63836
34.7914
34.42538
33.78042
32.9421
32.98314
33.73574
34.32949
34.72502
34.52838
34.10424
33.40208
32.53256
32.48588
33.25739
33.91895
34.36108
34.60288
34.71682
34.7219
34.69718
34.49288
34.20136
33.64804
32.94659
32.80449
33.45136
33.94276
34.27172
34.40518
34.4228
34.3734
34.09769
33.72459
33.15692
32.39577
32.2872
32.92305
33.43444
33.76598
33.93116
33.96174
33.8825
33.60677
33.15683
32.66136
32.33127
32.89066
33.22338
33.41335
33.44737
33.34064
33.04261
32.6759
32.2914
32.66389
32.83518
32.87913
32.7306
32.46231
32.30107
32.37994
33.66275
35.32956
36.07918
34.48589
33.64045
35.26514
35.94247
34.45582
33.59488
35.14853
35.75327
34.39283
33.53196
35.01609
35.55943
34.30626
33.45837
34.88908
35.42646
34.20184
33.37763
34.75905
35.26476
34.07528
33.275
34.55839
35.0921
33.8963
33.19168
34.41015
35.28258
34.91734
33.78404
33.08495
34.2828
35.19
34.80467
33.67355
32.97131
34.16418
35.09351
34.69295
33.57922
32.86256
34.0659
34.99203
34.58198
33.49161
32.74602
33.96783
34.93169
34.49054
33.38533
32.63926
33.85787
34.83404
34.39708
33.25941
33.70385
34.6675
34.97426
34.28082
33.06764
33.4955
34.55139
34.89516
34.10531
32.90154
33.40299
34.38558
34.777
33.93632
32.83977
33.13661
34.12882
34.82122
34.48611
33.67672
32.52992
32.73924
33.79521
34.63801
34.24499
33.32665
32.35845
33.40559
34.27842
34.62926
33.87685
32.92359
33.01618
33.90011
34.50635
34.75507
34.25173
33.49507
32.49883
32.52576
33.48992
34.19811
34.71383
34.46143
33.87779
33.06605
33.02757
33.77683
34.32958
34.72203
34.54114
34.11197
33.44633
32.54137
32.43427
33.25645
33.89088
34.33686
34.56508
34.68687
34.69903
34.68613
34.43953
34.15125
33.62686
32.91745
32.71056
33.39688
33.85917
34.18498
34.33956
34.35046
34.3079
34.00013
33.65355
33.07592
32.31481
32.77183
33.2887
33.59852
33.8039
33.8463
33.71976
33.46009
33.04034
32.39976
32.67537
32.98075
33.19337
33.25036
33.06737
32.82539
32.33523
32.32541
32.5139
32.60674
32.43983
33.37055
34.76312
36.35751
35.55398
34.08939
33.34277
34.7259
36.16733
35.47665
34.06675
33.29412
34.65454
35.93649
35.3437
34.01496
33.23479
34.56652
35.71332
35.19371
33.94425
33.16503
34.47495
35.58356
35.07914
33.8588
33.07243
34.38154
35.435
34.95337
33.75479
32.9945
34.28696
35.31242
34.84766
33.63438
34.18616
35.19998
34.73897
33.4863
34.07635
35.11757
34.64163
33.37176
33.94164
35.02366
34.52671
33.25733
33.76114
34.90969
34.41194
33.12887
33.64416
34.77258
34.27067
33.02207
33.52224
34.61632
35.00385
34.11818
32.894
33.40677
34.51351
34.91917
34.00067
32.74729
33.28742
34.43135
34.86747
33.89981
32.61772
33.12551
34.25932
34.72331
33.75653
32.82756
33.96826
34.77074
34.41299
33.44843
32.45669
33.68147
34.61874
34.18967
33.11601
33.30998
34.24647
34.63704
33.82288
32.69788
32.82715
33.85268
34.6298
34.25573
33.40579
32.39125
33.42137
34.27741
34.63049
33.96097
32.986
32.9872
33.86618
34.56524
34.22315
33.47894
32.46831
32.39749
33.36702
34.11414
34.65322
34.36815
33.77637
32.96463
32.86866
33.6332
34.19244
34.61022
34.68617
34.40118
33.91631
33.26189
32.38301
32.25859
33.07355
33.67861
34.17049
34.39445
34.5287
34.58894
34.48049
34.26417
33.91799
33.41272
32.68703
32.37939
33.08099
33.58211
33.88768
34.04876
34.07643
33.99277
33.75944
33.36829
32.78005
32.35352
32.94727
33.26558
33.43513
33.47556
33.37289
33.09468
32.67393
32.26778
32.57182
32.76032
32.82163
32.69498
32.44234
33.35454
34.43375
36.08374
35.30208
33.75023
33.33149
34.40104
35.94148
35.23525
33.72945
33.28433
34.32864
35.74236
35.10926
33.67956
33.21141
34.21368
35.5494
34.97273
33.60161
33.1117
34.09464
35.39045
34.83438
33.47218
33.02358
33.98
35.22107
34.63995
33.36447
32.94518
33.87465
35.09189
34.48827
33.2315
33.77602
34.96499
34.37261
33.08885
33.66706
34.85025
34.26448
32.97351
33.54787
34.69596
35.1405
34.15783
32.86735
33.4322
34.59107
35.04256
34.05295
32.77261
33.31243
34.49179
34.95653
33.93405
32.69024
33.1352
34.3876
34.87218
33.76011
32.98994
34.28091
34.78404
33.63406
32.82845
34.13786
34.66798
33.49985
32.76627
33.96177
34.88285
34.46286
33.40261
33.65537
34.68623
34.20863
33.05056
33.36406
34.37833
34.77181
33.90808
32.70057
32.94714
34.09745
34.5448
33.56276
32.53912
33.74564
34.57476
34.17633
33.21943
33.33906
34.20476
34.61409
33.81257
32.72493
32.79352
33.80908
34.58602
34.20522
33.36789
32.30066
33.35456
34.16893
34.53653
33.79277
32.88429
32.85183
33.72454
34.34269
34.63583
34.07534
33.30694
32.29571
33.16824
33.86651
34.39212
34.65213
34.17084
33.56311
32.65294
32.48456
33.28901
33.90008
34.34212
34.59648
34.69459
34.69292
34.66092
34.49142
34.15919
33.64351
32.96129
32.67154
33.3528
33.79606
34.06582
34.2662
34.28231
34.21377
33.95009
33.56512
33.03827
32.27171
32.66738
33.08863
33.46443
33.6455
33.66945
33.57833
33.32889
32.90772
32.29349
32.33388
32.69615
32.9035
32.91855
32.85273
32.58833
33.4173
34.27819
35.40998
36.28039
34.72047
33.82065
33.39742
34.25339
35.34412
36.10364
34.68583
33.80312
33.35725
34.20111
35.22742
35.88261
34.61657
33.7606
33.30076
34.1308
35.09713
35.67312
34.5296
33.69979
33.2314
34.04939
34.97073
35.51874
34.43637
33.62618
33.15193
33.9563
34.865
35.39508
34.3323
33.54257
33.06546
33.85081
34.74849
35.28701
34.21487
33.45273
32.97453
33.71892
34.62761
35.14848
34.09777
33.35228
32.88446
33.57631
34.48605
35.00966
33.97319
33.22866
33.45201
34.34603
34.89365
33.84799
33.089
33.33626
34.22452
34.79211
33.72347
32.96935
33.22303
34.10565
34.68187
33.59414
32.85222
33.09414
33.99623
34.99832
34.54809
33.4255
32.73757
32.94809
33.8887
34.89937
34.4455
33.30101
32.63644
32.77877
33.75893
34.8334
34.35103
33.15595
32.72713
33.58467
34.64585
34.1652
33.04034
33.3268
34.36466
34.81291
33.86318
32.69777
32.91882
34.12947
34.61853
33.54845
32.51472
33.79889
34.70555
34.26746
33.22922
33.443
34.44434
33.97694
32.77949
32.96087
34.06524
34.51068
33.55892
32.48507
33.68823
34.53518
34.12076
33.16457
33.21559
34.11658
34.51461
33.69678
32.5972
32.61771
33.6678
34.36995
34.66676
34.04533
33.20249
33.1544
33.96388
34.59553
34.26627
33.57577
32.57984
32.43769
33.37152
34.0694
34.61965
34.33757
33.7456
32.98528
32.77255
33.5142
34.10132
34.48872
34.69472
34.62381
34.31799
33.81653
33.17462
32.27051
32.86712
33.48778
33.91127
34.23458
34.3484
34.35025
34.34839
34.13218
33.75275
33.18067
32.43308
32.73557
33.19647
33.56441
33.705
33.71334
33.6669
33.4354
33.04213
32.38766
32.48972
32.8307
32.95782
32.97768
32.91658
32.63674
32.28377
33.50401
34.32914
35.23529
36.2915
35.78538
34.77478
33.85743
33.15239
33.47304
34.30622
35.18028
36.11684
35.68625
34.74078
33.84453
33.15259
33.41821
34.25609
35.08262
35.89891
35.53183
34.67367
33.80814
33.35071
34.18677
34.97173
35.69163
35.37088
34.58893
33.75048
33.27441
34.10507
34.86419
35.57521
35.25957
34.49657
33.67552
33.19121
34.01466
34.75475
35.44653
35.13501
34.39862
33.59051
33.10334
33.91696
34.64164
35.33642
35.02323
34.29511
33.49876
33.01202
33.81029
34.51978
35.2086
34.90623
34.18198
33.40206
32.91887
33.68661
34.39349
35.10767
34.80277
34.05311
33.30163
32.82521
33.51538
34.27457
34.98441
34.67629
33.91945
33.18419
33.40417
34.15043
34.86142
34.47935
33.80068
33.03457
33.2908
34.03661
34.78216
34.35471
33.68606
32.9179
33.17834
33.9243
34.69156
34.24243
33.56917
32.80117
33.05907
33.79748
34.56552
35.00096
34.12996
33.42342
32.68588
32.89034
33.67789
34.4689
34.92282
34.02049
33.2624
32.58635
32.83097
33.53165
34.29668
34.77234
33.85491
33.18497
33.22243
34.03069
34.51921
33.56669
32.84648
32.80957
33.73597
34.71593
34.23685
33.19783
33.40668
34.47235
33.98643
32.71789
32.94815
34.08833
34.5949
33.59136
32.4935
33.76274
34.67439
34.21944
33.22506
33.36652
34.31553
34.68294
33.90383
32.68328
32.78982
33.9378
34.6778
34.31357
33.41565
33.42233
34.29565
34.63403
33.9324
32.84685
32.83846
33.90004
34.6009
34.23354
33.40026
33.3227
34.09165
34.65074
34.39447
33.7201
32.76612
32.64384
33.60609
34.20451
34.65741
34.46274
33.95456
33.17193
32.94779
33.66071
34.18313
34.56733
34.68428
34.38316
33.97226
33.32528
32.40692
32.97094
33.54924
33.98355
34.28487
34.3889
34.38158
34.34216
34.1792
33.80032
33.28167
32.51939
32.80332
33.35691
33.63
33.77138
33.80619
33.70913
33.48795
33.08022
32.44395
32.54359
32.859
32.99562
33.02213
32.94338
32.65763
32.27548
33.57375
34.43395
35.30409
36.32666
35.81573
34.85089
34.01128
33.17364
33.55852
34.39151
35.2428
36.14574
35.71587
34.80688
33.97494
33.16249
33.48336
34.32061
35.13639
35.92373
35.5579
34.72835
33.87293
33.15488
33.40451
34.23748
35.01741
35.70961
35.39215
34.63419
33.80373
33.30666
34.14439
34.90327
35.59177
35.27677
34.534
33.71357
33.2117
34.04773
34.79117
35.45887
35.15049
34.43195
33.61945
33.11998
33.949
34.67894
35.32566
35.03263
34.32884
33.52428
33.0282
33.84695
34.56318
35.15447
35.35166
34.89812
34.22286
33.42735
32.93585
33.73872
34.44045
35.01316
35.27246
34.75133
34.10957
33.32861
32.84423
33.61388
34.30422
34.91321
35.18748
34.61672
33.97747
33.22736
32.74399
33.4457
34.18723
34.82618
35.08577
34.50947
33.8463
33.09302
33.33581
34.08085
34.73117
35.00999
34.40598
33.73226
32.96227
33.21484
33.97093
34.62764
34.90446
34.29706
33.61364
32.83303
33.08989
33.84682
34.47982
34.80914
34.17154
33.47992
32.7071
32.92908
33.70755
34.36551
34.96419
34.72335
34.04924
33.28788
32.5853
32.86132
33.57047
34.21853
34.82166
34.55668
33.90851
33.21798
32.559
33.25934
33.94659
34.6168
34.30433
33.62541
32.89384
32.88686
33.61355
34.33845
34.78476
33.92222
33.24187
32.51065
32.49074
33.2178
34.06373
34.53431
33.57537
32.86789
32.80553
33.70868
34.70212
34.22891
33.1769
32.45646
33.35188
34.36833
33.91653
32.66869
32.83044
34.00232
34.47302
33.47637
33.54292
34.54636
34.0457
32.93622
33.10347
34.06556
34.51266
33.65552
32.38789
32.4445
33.65088
34.46527
34.05584
33.16587
33.1162
33.98508
34.65469
34.33241
33.60997
32.44338
32.35032
33.42755
34.20939
34.57547
33.89623
33.00792
32.72168
33.66466
34.26044
34.5813
33.98768
33.28427
32.99929
33.69146
34.20178
34.64042
34.40371
33.99064
33.3668
32.47949
32.99097
33.56669
34.08611
34.31105
34.43076
34.50286
34.35687
34.21008
33.82525
33.30273
32.53596
32.80212
33.3436
33.6235
33.76348
33.7874
33.705
33.48198
33.0785
32.44169
32.38011
32.78612
32.95337
32.96792
32.90705
32.61246
33.50413
34.43409
35.35236
36.3533
35.8559
34.88579
33.95616
33.47322
34.39166
35.28705
36.17137
35.75018
34.83805
33.88967
33.41858
34.3208
35.17429
35.95898
35.60065
34.75085
33.84517
33.3513
34.23801
35.04883
35.74998
35.43542
34.65168
33.77646
33.27513
34.14544
34.92806
35.61085
35.30484
34.54692
33.69735
33.19201
34.04876
34.81252
35.47678
35.17368
34.44266
33.60919
33.10406
33.94981
34.70174
35.34885
35.0564
34.3399
33.51619
33.0128
33.84781
34.59093
35.22363
34.93664
34.23606
33.41932
32.9196
33.73979
34.47677
35.09501
35.28008
34.81944
34.12726
33.31978
32.82584
33.61487
34.34741
34.94102
35.18746
34.67303
34.00103
33.21537
33.44651
34.21392
34.84535
35.11592
34.54341
33.86127
33.06795
33.33652
34.10409
34.76344
35.04063
34.43836
33.74673
32.94402
33.2153
33.99298
34.66191
34.94357
34.32927
33.62606
32.82077
33.09021
33.87034
34.55237
35.01804
34.79978
34.213
33.49116
32.69948
32.92921
33.72836
34.3985
34.96368
34.70636
34.07858
33.29726
32.58365
32.86163
33.59935
34.23951
34.83034
34.5443
33.93645
33.22873
32.55946
33.26342
33.9581
34.52119
34.81274
34.25274
33.63925
32.91359
32.90533
33.62574
34.22947
34.81271
34.53863
33.9412
33.25559
32.51835
32.50146
33.24206
33.9225
34.57921
34.26894
33.6103
32.89582
32.85783
33.55788
34.27201
34.75564
33.86683
33.20758
32.47338
32.43207
33.16014
33.98976
34.47273
33.51239
32.7875
32.65908
33.57465
34.55055
34.07891
33.05118
33.12861
34.13358
34.61778
33.65406
32.46567
32.5179
33.74845
34.63019
34.20268
33.22901
33.30829
34.1858
34.62439
33.82817
32.56685
32.60247
33.73703
34.57714
34.1618
33.29501
33.22245
34.0428
34.46995
33.67853
32.55913
32.41777
33.51407
34.22766
34.58951
33.93102
33.09553
32.85589
33.68638
34.25892
34.56727
34.00086
33.32705
32.28958
33.0076
33.69586
34.19303
34.64153
34.41052
34.00002
33.37099
32.49754
32.97888
33.54994
33.95806
34.28149
34.36482
34.36643
34.33627
34.16643
33.79827
33.28796
32.52777
32.74637
33.18789
33.54332
33.7044
33.71466
33.65151
33.43278
33.0487
32.40058
32.33396
32.68216
32.9112
32.93316
32.81255
32.57546
33.41733
34.32919
35.30419
36.35336
35.83866
34.80836
33.83966
33.39745
34.30626
35.24286
36.1715
35.73285
34.77103
33.82437
33.35727
34.25612
35.13636
35.95929
35.57615
34.70056
33.78458
33.30079
34.18677
35.01729
35.75045
35.41497
34.61228
33.72563
33.23143
34.10502
34.90324
35.61138
35.29348
34.51662
33.65281
33.15195
34.01458
34.79145
35.47735
35.16474
34.41662
33.57014
33.06553
33.91696
34.67944
35.34941
35.04733
34.31285
33.47995
32.97459
33.8104
34.56357
35.22411
34.92259
34.2027
33.38404
32.88453
33.68675
34.44063
35.09542
34.80835
34.08056
33.28026
33.51556
34.30425
34.94147
35.18256
34.64431
33.94271
33.13655
33.40436
34.18733
34.84583
35.11279
34.52774
33.82416
33.0105
33.29099
34.08101
34.76387
35.03905
34.42339
33.71145
32.89024
33.17855
33.97124
34.66244
34.94322
34.31511
33.59545
32.77859
33.05931
33.84721
34.55346
35.02144
34.80921
34.19703
33.46328
32.66636
32.89065
33.70805
34.40106
34.95984
34.71361
34.0656
33.27447
32.83128
33.57084
34.24325
34.8178
34.55023
33.923
33.20568
33.25972
33.9581
34.54007
34.81432
34.26016
33.63399
32.8753
32.88711
33.6256
34.24901
34.77965
34.5309
33.94856
33.24966
32.51016
32.49098
33.24274
33.95288
34.50461
34.79111
34.27794
33.62271
32.88645
32.85826
33.58161
34.17125
34.75933
34.47875
33.89065
33.2183
32.4655
32.43229
33.16927
33.83807
34.48971
34.181
33.52324
32.80738
32.72414
33.45632
34.14582
34.6679
33.76562
33.10941
32.9356
33.75434
34.66042
34.21465
33.27151
32.52114
33.34329
34.32705
33.87395
32.62965
32.67124
33.88058
34.33571
33.39122
33.39618
34.32467
33.87802
32.71258
32.71439
33.83497
34.61036
34.19466
33.3705
33.26616
34.10779
34.51553
33.71043
32.65288
32.44024
33.58964
34.24174
34.56994
33.95461
33.11906
32.78018
33.68131
34.27441
34.58871
33.99779
33.3161
32.97464
33.68137
34.18329
34.54341
34.66403
34.37619
33.9838
33.35246
32.43607
32.91801
33.50843
33.90146
34.22302
34.36001
34.34098
34.31366
34.12119
33.73706
33.22206
32.47295
32.65436
33.10845
33.4697
33.6564
33.67944
33.56314
33.33291
32.90044
32.35056
32.54988
32.79028
32.81325
32.69343
32.4019
33.35453
34.27819
35.2353
36.32669
35.79262
34.74314
33.79784
33.33149
34.25339
35.18029
36.14577
35.69385
34.70894
33.77859
33.28433
34.2011
35.08261
35.92378
35.53963
34.64186
33.73248
33.21141
34.13074
34.97172
35.70968
35.37803
34.5579
33.66672
33.11171
34.0493
34.86422
35.59187
35.26463
34.46707
33.58688
33.02354
33.95617
34.75476
35.45903
35.13561
34.36966
33.49293
32.94514
33.85072
34.64151
35.32582
35.00328
34.26525
33.38429
33.71887
34.51966
35.15459
34.86278
34.14844
33.2795
33.5763
34.39343
35.01325
35.26516
34.71585
34.02147
33.13653
33.45203
34.27458
34.91329
35.18691
34.5963
33.89835
33.01769
33.3363
34.15048
34.82628
35.10999
34.49118
33.77311
32.90049
33.22309
34.03671
34.73132
35.01955
34.38734
33.65435
32.77376
33.09422
33.92443
34.62787
34.89482
34.2807
33.52928
32.66558
32.94819
33.79762
34.48013
35.0186
34.77026
34.1624
33.35515
32.77886
33.67802
34.36582
34.96505
34.69449
34.05165
33.22183
32.72721
33.53174
34.21846
34.83258
34.53754
33.895
33.13504
33.22246
33.94643
34.52134
34.79687
34.2419
33.60036
32.79337
32.80963
33.61352
34.22938
34.77979
34.50642
33.94434
33.23112
33.21782
33.92241
34.50489
34.80321
34.21341
33.59952
32.81938
32.80555
33.55775
34.17163
34.72766
34.45014
33.88618
33.19659
33.16018
33.83802
34.3947
34.68436
34.11937
33.52163
32.75776
32.65926
33.4569
34.03548
34.66187
34.34409
33.77094
33.10304
32.93548
33.60787
34.25142
34.71062
33.89609
33.28096
32.49945
33.14204
33.92599
34.39012
33.48425
32.71759
32.47975
33.47584
34.41007
33.94138
32.90058
32.82693
33.97639
34.42557
33.47904
33.46513
34.36828
33.95664
32.79787
32.75774
33.85629
34.59773
34.22088
33.42767
33.24112
34.08957
34.54149
33.70822
32.60978
32.36131
33.5202
34.234
34.57579
33.93585
33.10512
32.68415
33.64138
34.24851
34.65729
34.52716
33.98262
33.23626
32.82533
33.62537
34.11896
34.4747
34.68778
34.61173
34.29502
33.87275
33.26931
32.27955
32.71393
33.35116
33.8161
34.06485
34.28751
34.29207
34.23492
33.95645
33.61885
33.10628
32.28311
32.37656
32.95008
33.24773
33.49075
33.50066
33.43137
33.14493
32.69952
32.35331
32.51596
32.56379
32.46084
33.37054
34.43374
35.40998
36.29149
35.86983
34.89955
33.92072
33.34275
34.40103
35.34411
36.11683
35.76099
34.85602
33.89611
33.29411
34.32861
35.22741
35.8989
35.59824
34.77048
33.84161
33.23477
34.21362
35.09713
35.69163
35.43301
34.65909
33.76441
33.16501
34.09461
34.9707
35.57521
35.31969
34.54629
33.63485
33.07241
33.97997
34.86497
35.44652
35.19294
34.43614
33.52438
32.99448
33.87463
34.74847
35.33642
35.07671
34.3227
33.39443
33.77601
34.62759
35.20861
34.94585
34.21531
33.28591
33.66706
34.48605
35.10769
34.8033
34.09968
33.16952
33.54789
34.34604
34.98445
35.18205
34.69001
33.97564
33.05144
33.43223
34.22456
34.86147
35.07354
34.58627
33.84952
32.93466
33.31247
34.10569
34.78223
35.01249
34.48153
33.6997
32.8362
33.13524
33.99629
34.69164
34.93869
34.38344
33.59467
32.74185
32.99
33.88877
34.56561
34.84451
34.28467
33.46763
32.82851
33.75901
34.46899
34.96432
34.75655
34.1287
33.32753
32.76635
33.58476
34.29676
34.82174
34.59737
33.95934
33.20345
33.32693
34.03078
34.61683
34.85081
34.33689
33.69786
32.8621
32.91905
33.73614
34.33852
34.81273
34.60508
34.08278
33.38743
32.51511
33.40696
34.06379
34.57918
34.80024
34.32261
33.73585
32.94814
32.94843
33.70858
34.27188
34.75931
34.53914
34.03401
33.39327
32.52439
32.4933
33.35164
33.98958
34.48966
34.71898
34.22784
33.67042
32.91076
32.83025
33.57452
34.14573
34.66181
34.41923
33.92773
33.28278
33.12858
33.75431
34.25136
34.53149
34.02661
33.47138
32.67158
32.51792
33.34328
33.92596
34.47839
34.15116
33.59638
32.92582
32.67117
33.47587
34.09042
34.573
33.81653
33.12523
32.82985
33.72537
34.57163
34.10532
33.27501
33.21022
34.09753
34.56615
33.71076
32.48862
33.67594
34.4999
34.04973
33.093
32.98229
33.93476
34.39678
33.6348
33.4001
34.17436
34.52904
33.84765
32.81104
32.51659
33.66399
34.28028
34.58115
33.94892
33.28334
32.74643
33.69208
34.2768
34.53662
33.97678
33.36113
32.85892
33.57874
34.08646
34.44371
34.66635
34.56022
34.3158
33.88089
33.35151
32.35139
32.6242
33.42059
33.85106
34.11176
34.20476
34.21557
34.20586
33.99117
33.59725
33.08856
32.39553
32.91205
33.28641
33.40672
33.46681
33.39419
33.15485
32.71948
32.39805
32.62761
32.59675
32.55794
33.66275
34.76312
36.08375
35.40779
34.15612
33.19456
33.64045
34.7259
35.94149
35.33679
34.13615
33.17001
33.59488
34.65453
35.74237
35.21352
34.08651
33.12511
33.53196
34.56652
35.5494
35.08513
34.01833
33.06559
33.45837
34.47495
35.39043
35.64644
34.97618
33.94098
32.99782
33.37763
34.38154
35.22106
35.50909
34.85445
33.85979
32.93149
33.275
34.28696
35.09188
35.39173
34.7382
33.78024
32.87981
33.19168
34.18616
34.96499
35.26464
34.6193
33.69604
33.08495
34.07636
34.85026
35.15742
34.50338
33.59711
32.97132
33.94165
34.69597
35.04088
34.35511
33.48651
32.86257
33.76116
34.59109
34.96733
34.20243
33.35554
32.74604
33.64419
34.49183
34.86293
34.08854
33.19479
32.63929
33.52227
34.38765
34.99837
34.72527
33.98124
33.06234
33.40681
34.28096
34.89943
34.61323
33.8669
32.91812
33.28748
34.13793
34.83348
34.48551
33.72259
32.77601
33.12558
33.96187
34.64597
34.91982
34.31581
33.57072
32.71238
32.82768
33.65553
34.36486
34.71122
34.07959
33.29593
32.45687
33.36433
34.12991
34.71639
34.44982
33.75889
32.89009
32.94754
33.79986
34.47457
34.74276
34.12621
33.43753
32.51077
32.53941
33.44365
34.1078
34.69906
34.43531
33.79412
32.97702
32.96019
33.76195
34.36631
34.65552
34.06555
33.42317
32.52888
32.48473
33.36616
34.00194
34.55034
34.25356
33.70212
32.912
32.78975
33.54292
34.1337
34.6605
34.44043
33.90956
33.24377
32.38654
33.10362
33.74886
34.32728
34.58676
34.03025
33.44032
32.65278
32.4445
33.30817
33.88016
34.40966
34.66232
34.11014
33.58799
32.86758
32.60213
33.39574
33.976
34.57144
34.25291
33.6953
33.00452
32.71413
33.46494
34.09739
34.59024
33.8163
33.16629
32.75762
33.67587
34.5385
34.06376
33.20035
32.37183
32.98225
34.00379
34.49225
33.63781
33.5657
34.3444
33.9173
32.82399
32.61474
33.71787
34.56355
34.13954
33.31818
33.09449
33.92556
34.59262
34.30921
33.61919
32.39313
33.25195
33.95864
34.58745
34.33295
33.65792
32.6829
32.20218
33.30739
33.92838
34.42774
34.62742
34.17457
33.6771
32.76358
32.27592
33.12214
33.69336
34.0885
34.41699
34.49715
34.51533
34.48275
34.24321
33.92658
33.42862
32.76742
32.85075
33.33278
33.6844
33.81812
33.84411
33.78559
33.55233
33.14632
32.45363
32.31347
32.85355
33.18928
33.39194
33.4371
33.3449
33.06473
32.61857
32.3431
32.72992
32.93241
32.96249
32.84191
32.55469
32.24567
32.48078
32.4729
32.40541
34.06893
35.32956
36.35751
35.86957
34.69648
33.50485
34.04585
35.26514
36.16733
35.75815
34.66127
33.46673
33.9918
35.14853
35.93649
35.59564
34.59148
33.39979
33.9153
35.0161
35.71332
35.40988
34.49852
33.32324
33.82414
34.88909
35.58356
35.2751
34.3915
33.23853
33.7234
34.75906
35.435
35.08777
34.27599
33.15062
33.61018
34.5584
35.31243
34.94379
34.13536
33.05894
33.48356
34.41016
35.19999
34.82631
33.98506
32.95971
33.35428
34.28281
35.11758
34.72291
33.83309
32.85405
33.22032
34.16419
35.02368
34.61785
33.65908
32.75451
33.0604
34.06592
34.90971
34.52585
33.55629
32.64574
32.93734
33.96784
34.7726
35.02979
34.41703
33.45833
32.82378
33.85789
34.61634
34.93142
34.30576
33.35531
32.70518
33.70387
34.51355
34.85273
34.13019
33.22709
32.57517
33.49553
34.4314
34.80403
33.99633
33.06923
32.53457
33.40303
34.25937
34.88292
34.62299
33.86249
32.90005
33.13666
33.96833
34.68633
34.33104
33.53914
32.66147
32.7393
33.68156
34.37847
34.71231
34.08082
33.24815
32.35851
33.31006
34.09759
34.70579
34.44712
33.72015
32.78726
32.82719
33.74569
34.44443
34.7073
34.08374
33.34792
32.39414
32.39127
33.33904
34.06521
34.67451
34.40812
33.7323
32.82971
32.79351
33.68822
34.31556
34.65372
34.02545
33.30395
32.36228
32.30067
33.2156
33.93784
34.54643
34.1873
33.59775