/*--------------------------------*- C++ -*----------------------------------*\
| =========                 |                                                 |
| \\      /  F ield         | OpenFOAM: The Open Source CFD Toolbox           |
|  \\    /   O peration     | Version:  5.x                                   |
|   \\  /    A nd           | Web:      www.OpenFOAM.org                      |
|    \\/     M anipulation  |                                                 |
\*---------------------------------------------------------------------------*/
FoamFile
{
    version     2.0;
    format      ascii;
    class       volScalarField;
    location    "20/tumor";
    object      T;
}
// * * * * * * * * * * * * * * * * * * * * * * * * * * * * * * * * * * * * * //

dimensions      [0 0 0 1 0 0 0];

internalField   nonuniform List<scalar> 
1504
(
38.6578
38.82273
38.89086
38.73921
39.30575
39.41057
39.06085
38.80833
39.4811
39.61889
39.1582
38.7594
39.45207
39.59126
39.12641
38.67001
39.34316
39.4831
39.03939
38.53045
39.15056
39.30066
38.88747
38.3343
38.88209
39.02902
38.61682
38.55205
38.68133
38.30451
38.17087
38.29776
38.8228
39.39703
39.54509
39.14257
39.30536
40.02249
40.17059
39.72846
38.86172
39.48087
40.20538
40.35163
39.91365
38.93087
39.45185
40.17749
40.3237
39.88499
38.93129
39.34288
40.06701
40.21257
39.77613
38.84203
39.15021
39.87551
40.02128
39.58598
38.67897
38.88204
39.59846
39.7442
39.30884
38.43279
38.55213
39.24209
39.38451
38.95696
38.17093
38.8043
38.94569
38.51847
38.31103
38.42637
38.10645
37.99234
38.89073
39.54498
39.68239
39.26714
39.41031
40.17047
40.3189
39.87243
38.97783
39.61865
40.35153
40.49893
40.05764
39.02407
38.65767
39.591
40.3236
40.47131
40.02915
39.01743
39.48286
40.21245
40.35924
39.92006
38.92673
39.30044
40.02116
40.16677
39.73266
38.78112
39.02884
39.74413
39.8901
39.45641
38.58877
38.68121
39.38437
39.53107
39.0968
38.30502
38.29767
38.94558
39.09621
38.64105
38.4263
38.59322
38.17143
37.99229
38.08542
39.14244
39.26707
38.83327
39.06069
39.72828
39.87248
39.4298
38.72177
39.15804
39.91346
40.05768
39.61546
38.69213
39.12625
39.8848
40.02916
39.58371
38.66869
39.03923
39.77594
39.92002
39.48203
38.59093
38.88732
39.5858
39.73259
39.29872
38.46004
38.61669
39.30868
39.45627
38.9852
38.30439
38.95682
39.09672
38.68668
38.51835
38.64102
38.20415
38.10637
38.17141
38.86157
38.97766
38.72188
38.93071
39.02391
38.69253
38.93112
39.01727
38.66919
38.84187
38.92658
38.59133
38.67883
38.78098
38.46025
38.43268
38.58868
38.30496
38.77805
38.77808
38.72181
38.77075
38.86175
38.97794
38.99482
39.09405
38.97797
38.86181
39.09407
38.99485
38.72181
38.77075
38.69219
38.6937
38.63808
38.93078
39.02423
38.9519
39.03024
38.63809
39.02423
38.93082
39.03024
38.95193
38.6922
38.69369
38.66876
38.63844
38.65782
38.58825
38.93119
39.01763
38.90416
38.98519
38.58825
39.01762
38.93123
38.98518
38.90419
38.66875
38.63844
38.591
38.53319
38.84194
38.92691
38.75896
38.86643
38.92689
38.84199
38.86641
38.75901
38.59098
38.53318
38.46012
38.37985
38.67892
38.78128
38.58161
38.68669
38.78125
38.67899
38.68667
38.58166
38.46011
38.37986
38.43272
38.58888
38.32535
38.47118
38.58885
38.4328
38.47116
38.3254
38.30512
38.30507
38.84037
38.90622
38.90625
38.84049
38.79664
38.83328
38.79666
39.18394
38.89084
39.07784
39.1935
39.1425
39.26714
39.45648
39.62041
38.82287
39.1935
39.07805
39.26716
39.14278
39.62029
39.45721
38.79667
38.83332
39.18394
38.7967
38.72192
38.77107
39.06086
38.8344
39.1869
39.06096
39.42986
39.18794
39.59373
38.73924
39.18689
38.83445
39.42978
39.06105
39.59365
39.18805
38.72196
38.77113
38.6926
38.6942
39.15821
38.7919
39.14861
39.15976
39.6156
39.1504
39.60867
38.80836
39.14859
38.79191
39.61554
39.15983
39.60864
39.15045
38.69266
38.69426
38.66926
38.63893
39.12642
38.7152
39.08853
39.12828
39.58388
39.09029
39.54186
38.75941
39.08851
38.71519
39.58384
39.12833
39.54183
39.09033
38.66931
38.63898
38.59141
38.53349
39.03941
38.61031
38.97291
39.04089
39.48225
38.97398
39.40295
38.67001
38.9729
38.61029
39.48221
39.04093
39.40291
38.97402
38.59145
38.53354
38.46033
38.38
38.88748
38.43927
38.77438
38.88814
39.29897
38.77468
39.16263
38.53045
38.77438
38.43926
39.29893
38.88819
39.16261
38.77472
38.46038
38.38004
38.6168
38.4349
38.61688
38.98539
38.43483
38.84591
39.02905
38.73406
38.84819
39.30872
39.45663
39.14463
39.2865
38.88212
38.84818
38.73408
39.45659
39.30875
39.28646
39.14469
38.33434
38.43495
38.98537
38.61694
38.84592
38.43487
38.30449
38.16064
38.30446
38.68683
38.16065
38.48047
38.68134
38.35656
38.49866
38.95638
39.09703
38.73004
38.88399
38.55207
38.49868
38.35657
39.09698
38.95644
38.88394
38.73009
38.16067
38.68684
38.30451
38.48051
38.1607
38.20426
38.07874
38.29777
38.11475
38.51828
38.64122
38.28846
38.42077
38.17091
38.11476
38.64117
38.51835
38.42075
38.28853
38.20429
38.07877
38.1064
38.17151
38.00353
38.17149
38.10647
38.00351
38.84046
38.90619
39.06041
39.13412
39.13409
39.22294
39.13414
39.06045
39.22296
39.13414
38.84042
38.90624
38.77794
39.14275
39.07787
39.45726
38.89074
39.26707
39.19325
39.62017
38.82276
39.45663
39.07779
39.26718
38.89082
39.62048
39.1934
38.77799
38.86172
38.9949
38.97777
39.0939
38.99491
38.9778
39.09391
38.93083
38.95197
39.02407
38.638
39.03008
38.95201
39.02408
39.03009
38.63804
38.93125
38.90422
38.65774
39.01747
38.58818
38.98503
38.90426
39.01747
38.65777
38.98504
38.58822
38.84198
38.75896
38.92675
38.86628
38.75901
38.92675
38.86628
38.67891
38.58161
38.78114
38.68658
38.58167
38.78114
38.68659
38.43272
38.32535
38.5888
38.47111
39.30887
38.73405
39.14525
39.02889
39.45648
38.84809
39.28644
38.88208
39.14527
38.73408
39.45644
39.02892
39.28639
38.84812
38.32543
38.58882
38.47116
38.30506
38.95696
38.35665
38.73039
38.68126
39.09695
38.49861
38.88393
38.55215
38.73039
38.35665
39.09688
38.68132
38.88388
38.49867
38.30511
38.51846
38.28855
38.29774
38.64119
38.11473
38.42075
38.17096
38.28858
38.64116
38.29778
38.42076
38.11477
38.10645
38.1715
38.00352
38.42643
38.00526
38.18117
38.4264
38.59333
38.18114
38.30844
38.31108
38.18113
38.00532
38.59329
38.42643
38.30842
38.18119
38.17152
38.00355
37.99236
37.99235
38.08548
38.08547
37.9924
38.90617
38.8404
39.13407
39.22292
39.06035
39.13407
39.22295
39.13413
39.1341
39.06041
38.90622
38.84036
38.77793
39.26703
39.19328
39.62012
38.82274
39.14265
39.07788
39.45705
38.89082
39.62041
39.19343
39.1425
38.82271
39.45645
39.0778
38.77799
38.97779
39.09389
38.86166
38.9947
39.09391
38.86169
38.99473
39.02405
38.63796
39.03006
38.93066
38.95177
39.03006
38.63797
38.93068
38.95179
39.01743
38.58813
38.98499
38.93106
38.90403
38.65766
38.985
38.58813
38.93107
38.90404
38.92671
38.86625
38.84183
38.75885
38.86627
38.84184
38.75887
38.78109
38.68652
38.67884
38.58153
38.68656
38.67885
38.58154
38.58872
38.47104
38.43267
38.32529
39.45644
38.84804
39.28631
38.88196
39.30859
38.73394
39.14453
39.02889
39.28628
38.84806
39.30854
38.88199
39.14448
38.73398
38.47111
38.43269
38.32532
38.30497
39.09682
38.49857
38.88381
38.55194
38.95629
38.35645
38.72996
38.68123
38.88379
38.49857
38.95622
38.55201
38.72991
38.35652
38.64106
38.11468
38.42067
38.17081
38.51823
38.28843
38.29768
38.42066
38.11468
38.5182
38.17087
38.28841
38.17143
38.00345
38.10638
38.59325
38.18108
38.30838
38.31099
38.42636
38.00526
38.18114
38.42636
38.30836
38.18112
38.42633
38.31103
38.1811
38.00531
38.00349
38.10636
38.08543
37.99236
37.99233
37.99232
38.84032
38.90616
38.9062
38.84046
38.8332
38.79654
39.18379
38.79658
39.26705
39.45646
39.62031
38.82264
38.89069
39.07762
39.19319
39.14274
39.62019
39.45724
38.89071
38.82278
39.19318
39.07783
39.18391
38.79662
38.79663
38.72169
38.77062
39.42961
39.18673
39.59347
38.73912
39.0609
38.83431
39.18788
39.0608
39.59363
39.18682
39.06089
38.73917
39.18785
38.83435
38.7707
38.69207
38.69356
39.61536
39.14843
39.60846
38.80823
39.15967
38.79178
39.15029
39.15812
39.60853
39.14851
39.15966
38.80829
39.1503
38.79184
38.69365
38.66862
38.63831
39.58366
39.08835
39.54165
38.75928
39.12817
38.71505
39.09017
39.12632
39.54166
39.08842
39.12817
38.75935
39.09018
38.71513
38.6384
38.59085
38.53306
39.48203
38.97274
39.40273
38.66988
39.04077
38.61017
38.97386
39.03929
39.40269
38.9728
39.04077
38.66995
38.97386
38.61023
38.53315
38.45999
38.37974
39.29875
38.77424
39.16245
38.53032
38.88804
38.43914
38.77458
38.88736
39.16241
38.77426
38.88802
38.53037
38.77456
38.43918
38.37979
38.98522
38.43483
38.84578
38.33422
38.61681
38.43475
39.4563
39.14512
39.28625
38.88193
39.02876
38.73394
38.84798
39.30869
39.28622
39.1451
39.02873
38.88194
38.84796
38.73397
38.6167
38.84575
38.43482
38.61679
38.33427
38.43475
38.68671
38.16057
38.48039
38.3044
38.1606
39.09673
38.73026
38.88375
38.55203
38.6812
38.35655
38.49856
38.9568
38.88374
38.73026
38.68115
38.55208
38.49852
38.3566
38.30442
38.48037
38.1606
38.30438
38.1606
38.20419
38.07868
38.64105
38.28848
38.42067
38.17087
38.2977
38.1147
38.51838
38.42063
38.28849
38.29765
38.17093
38.11465
38.07868
38.17146
38.0035
38.10641
38.00347
38.77785
38.77789
38.72183
38.771
38.97763
38.99475
39.09374
38.86166
39.09377
38.99481
38.77103
38.69253
38.69413
39.0239
38.95184
39.0299
38.63791
38.93074
39.0299
38.95186
38.6379
38.69415
38.66918
38.63885
39.01728
38.9041
38.98486
38.65764
38.58809
38.93114
38.98485
38.90411
38.6576
38.58806
38.63888
38.59132
38.53341
38.92658
38.75887
38.86612
38.84188
38.86611
38.75887
38.53345
38.46026
38.37993
38.78099
38.58154
38.68646
38.67883
38.68645
38.58154
38.37995
38.58869
38.32532
38.47105
38.43269
38.47103
38.32531
38.30502
39.41053
39.45869
39.58846
39.72806
39.8725
39.88256
40.02566
39.30594
39.58849
39.4588
39.8726
39.7288
40.02576
39.88285
39.61887
39.47629
39.61531
39.91295
40.05779
39.90915
40.05439
39.48118
39.61531
39.47636
40.05785
39.91311
40.05444
39.90926
39.59126
39.40717
39.54608
39.88423
40.02933
39.83949
39.98419
39.45214
39.54604
39.40725
40.02936
39.88431
39.9842
39.83956
39.48314
39.25887
39.40242
39.77562
39.92029
39.69202
39.83733
39.34323
39.40235
39.25895
39.92028
39.77568
39.83731
39.69206
39.30072
39.00684
39.17593
39.58601
39.73291
39.45641
39.60557
39.15061
39.17586
39.00688
39.73289
39.58604
39.60554
39.45643
39.54508
39.7634
39.91485
39.54502
39.68237
39.9147
40.06204
39.39709
39.91481
39.76348
39.68241
39.54513
40.0621
39.91493
39.72909
39.45845
39.88326
39.41016
39.87253
39.58819
40.02568
40.17041
40.17334
40.31933
40.17053
40.31888
40.31951
40.46666
40.02254
40.31956
40.17335
40.31894
40.17045
40.46673
40.31936
39.30536
39.88302
39.45849
39.87255
39.41024
40.02565
39.58824
39.91375
39.47606
39.90999
39.61863
40.0578
39.61507
40.05439
40.3515
40.20235
40.34858
40.35165
40.49891
40.34871
40.4962
40.20542
40.34867
40.20241
40.49897
40.35159
40.49624
40.34869
39.48092
39.90993
39.47613
40.05777
39.61867
40.05436
39.61511
39.88503
39.40695
39.8402
39.59102
40.02931
39.54586
39.98415
40.32364
40.13216
40.27797
40.32375
40.4713
40.27807
40.42533
40.17752
40.27808
40.13213
40.47133
40.32375
40.42536
40.27808
39.45192
39.84015
39.40705
40.02928
39.59107
39.98412
39.5459
39.77617
39.25848
39.69228
39.48289
39.92021
39.40216
39.83725
40.21253
39.9819
40.12734
40.21259
40.35925
40.1274
40.27333
40.06703
40.12736
39.98196
40.35927
40.21261
40.27333
40.12743
39.34297
39.69222
39.25858
39.92018
39.48295
39.83722
39.40221
39.58605
39.00668
39.45636
39.30045
39.73282
39.17572
39.60548
40.02127
39.74709
39.89331
40.02139
40.16686
39.89358
40.03907
39.87554
39.89334
39.74712
40.16686
40.02142
40.03905
39.89361
39.15028
39.45626
39.00674
39.73279
39.3005
39.60544
39.17575
39.74423
39.43059
39.57443
39.74435
39.89022
39.57443
39.72072
39.59851
39.57433
39.43068
39.89018
39.74439
39.72067
39.57448
39.38455
39.03196
39.17457
39.38445
39.53127
39.17448
39.32257
39.24213
39.17455
39.03196
39.5312
39.38451
39.3225
39.17452
38.94572
38.55052
38.69927
38.94565
39.0964
38.69922
38.85377
38.80434
38.69919
38.55057
39.09631
38.94572
38.85373
38.69926
39.68235
39.91466
40.06201
39.39696
39.54502
39.76331
39.91478
39.54511
40.06207
39.91489
39.54505
39.39704
39.91475
39.76342
39.87243
39.58825
40.02559
39.30575
39.72861
39.4586
39.88266
40.31884
40.31944
40.46661
40.02236
40.17033
40.17318
40.31925
40.17039
40.4667
40.31928
40.17052
40.02247
40.31948
40.17327
39.41038
40.02556
39.58829
39.72801
39.30568
39.88248
39.4586
40.05769
39.61507
40.05427
39.48097
39.91292
39.47615
39.90907
40.49887
40.34858
40.49616
40.20526
40.35149
40.20225
40.3486
40.35146
40.49625
40.34854
40.35163
40.20537
40.34868
40.20234
39.61868
40.05422
39.61512
39.91287
39.48101
39.90906
39.47621
40.02919
39.54579
39.98403
39.45193
39.88412
39.40705
39.83937
40.47125
40.27797
40.42528
40.17736
40.32367
40.13197
40.27799
40.32358
40.42538
40.2779
40.32372
40.17744
40.27802
40.13204
39.59106
39.984
39.54587
39.88412
39.452
39.83937
39.40711
39.9201
39.40212
39.83712
39.34303
39.77549
39.25875
39.69187
40.35921
40.12724
40.27326
40.06687
40.21252
39.98179
40.12734
40.21244
40.27333
40.12724
40.21253
40.06693
40.12733
39.98185
39.48294
39.83708
39.40221
39.77548
39.3431
39.69185
39.25881
39.73271
39.17565
39.60537
39.15042
39.58585
39.00671
39.45626
40.16675
39.89326
40.03896
39.87538
40.02132
39.74698
39.89354
40.02116
40.039
39.89323
40.0213
39.87543
39.89352
39.74702
39.30051
39.60531
39.17573
39.58582
39.15046
39.45621
39.00674
39.89011
39.57423
39.72059
39.59838
39.74434
39.43055
39.57438
39.74417
39.72053
39.57434
39.7443
39.59842
39.57434
39.43059
39.53112
39.17442
39.32242
39.24198
39.38438
39.03182
39.17439
39.38442
39.32235
39.17444
39.38432
39.24203
39.17434
39.03184
39.09625
38.6991
38.85368
38.80421
38.9456
38.55047
38.69917
38.94562
38.8536
38.69919
38.94555
38.80425
38.69914
38.55049
39.87239
39.88283
40.02549
39.30517
39.41
39.4583
39.58801
39.72904
40.0256
39.88318
39.41001
39.30528
39.58803
39.45836
40.05762
39.90974
40.05422
39.48071
39.61845
39.47592
39.61488
39.91367
40.05426
39.90989
39.61846
39.48079
39.61489
39.47599
40.02913
39.83996
39.98396
39.45171
39.59084
39.40684
39.54567
39.88493
39.98398
39.84008
39.59084
39.45178
39.54566
39.4069
39.92002
39.69203
39.83706
39.34277
39.48272
39.25839
39.40199
39.77604
39.83703
39.69212
39.4827
39.34282
39.40197
39.25842
39.73262
39.45609
39.60528
39.1501
39.30028
39.00657
39.17556
39.58587
39.60522
39.45617
39.30026
39.15011
39.17554
39.00658
)
;

boundaryField
{
    tumor_to_gland
    {
        type            compressible::turbulentTemperatureCoupledBaffleMixed;
        refValue        nonuniform List<scalar> 
1228
(
38.10181
38.10181
38.2132
38.2132
38.2132
38.2132
37.9584
37.9584
37.9584
37.9584
38.06758
38.06758
38.06758
38.06758
38.47169
38.47169
38.47169
38.56891
38.56891
38.56891
38.56891
38.50756
38.50756
38.50756
38.33844
38.33844
38.33844
38.33844
38.00462
38.00462
38.00462
38.00462
37.97326
37.97326
37.97326
37.82077
37.82077
37.91659
37.91659
37.91659
37.91659
37.91659
38.66424
38.66424
38.66424
38.66424
38.38894
38.38894
38.38894
38.38894
38.10185
38.10185
37.95844
37.95844
37.95844
37.95844
38.05998
38.05998
38.05998
37.78636
37.78636
37.82079
37.82079
37.7331
37.7331
37.7331
38.47161
38.47161
38.47161
38.54125
38.54125
38.21312
38.21312
38.21312
38.21312
38.0675
38.0675
38.0675
38.0675
38.17183
38.17183
38.17183
38.17183
38.17183
38.17183
37.89059
37.91652
37.91652
37.91652
37.91652
37.91652
37.81382
37.81382
37.59005
38.66415
38.66415
38.66415
38.66415
38.4065
38.5688
38.5688
38.5688
38.5688
38.3746
38.3746
38.23412
38.23412
38.23412
37.86957
37.86957
37.86957
37.97317
37.97317
37.97317
37.90838
37.90838
37.73304
37.73304
37.73304
37.8138
37.8138
38.38885
38.38885
38.38885
38.38885
38.54117
38.54117
38.37484
38.37484
38.23435
38.23435
38.23435
38.05989
38.05989
38.05989
38.17178
38.17178
38.17178
38.17178
38.17178
38.17178
37.86962
37.86962
37.86962
37.7863
37.7863
37.89055
38.3267
38.3267
38.32671
38.32671
38.29541
38.29541
38.16386
38.16386
38.16386
38.38891
38.38891
38.38891
38.38891
38.54129
38.54129
38.59798
38.59798
38.59798
38.59798
38.59798
38.16386
38.16386
38.16386
38.54131
38.54131
38.38894
38.38894
38.38894
38.38894
38.598
38.598
38.598
38.598
38.598
38.29543
38.29543
38.37465
38.37465
38.03789
38.03789
38.03789
38.34118
38.34118
38.34118
38.21319
38.21319
38.21319
38.21319
38.06687
38.06687
38.06687
38.06687
38.17465
38.17465
38.17465
38.10182
38.10182
38.17465
38.17465
38.17465
38.06688
38.06688
38.06688
38.06688
38.37465
38.37465
38.34118
38.34118
38.34118
38.0379
38.0379
38.0379
38.23416
38.23416
38.23416
38.00562
38.00562
38.00562
38.06758
38.06758
38.06758
38.06758
37.89201
37.89201
37.89201
38.28032
38.28032
38.28032
38.28032
38.28032
38.28032
38.28032
38.28032
37.95842
37.95842
37.95842
37.95842
37.89201
37.89201
37.89201
38.28035
38.28035
38.28035
38.28035
38.28035
38.28035
38.28035
38.28035
38.23415
38.23415
38.23415
38.00563
38.00563
38.00563
37.86961
37.86961
37.86961
38.05991
38.05991
38.05991
38.1719
38.1719
38.1719
38.1719
38.1719
38.1719
37.9199
37.9199
38.01916
38.01916
38.01916
38.17186
38.17186
38.17186
38.17186
38.17186
38.17186
38.05997
38.05997
38.05997
38.01912
38.01912
38.01912
37.91997
37.91997
37.86961
37.86961
37.86961
37.78634
37.78634
37.89067
37.75706
37.89063
37.78641
37.78641
37.75703
38.40375
38.40376
38.36473
38.36473
38.40651
38.36475
38.36475
38.47168
38.47168
38.47168
38.6283
38.6283
38.6283
38.6283
38.6283
38.66421
38.66421
38.66421
38.66421
38.62838
38.62838
38.62838
38.62838
38.62838
38.66429
38.66429
38.66429
38.66429
38.36476
38.36476
38.40653
38.36477
38.36477
38.29552
38.29552
38.56889
38.56889
38.56889
38.56889
38.41804
38.41804
38.56891
38.56891
38.56891
38.56891
38.41807
38.41807
38.56895
38.56895
38.56895
38.56895
38.29555
38.29555
38.03797
38.03797
38.03797
38.37488
38.37488
38.34146
38.34146
38.34146
38.50759
38.50759
38.50759
38.038
38.038
38.038
38.37492
38.37492
38.3415
38.3415
38.3415
38.23439
38.23439
38.23439
38.00573
38.00573
38.00573
38.13153
38.13153
38.13153
38.33846
38.33846
38.33846
38.33846
38.13154
38.13154
38.13154
38.23442
38.23442
38.23442
38.00575
38.00575
38.00575
37.86967
37.86967
37.86967
38.13342
38.13342
38.13342
38.13342
38.13344
38.13344
38.13344
38.13344
38.00467
38.00467
38.00467
38.00467
38.13346
38.13346
38.13346
38.13346
38.13349
38.13349
38.13349
38.13349
37.86968
37.86968
37.86968
37.97323
37.97323
37.97323
37.79824
37.97324
37.97324
37.97324
37.79825
38.01649
38.01649
38.01649
38.01649
38.01649
38.01651
38.01651
38.01651
38.01651
38.01651
37.79824
37.97332
37.97332
37.97332
37.79833
37.91659
37.91659
37.91659
37.91659
37.91659
37.73749
37.73749
37.73749
37.94407
37.94407
37.94407
37.94407
37.82081
37.82081
37.73749
37.73749
37.73749
37.94412
37.94412
37.94412
37.94412
37.73306
37.73306
37.73306
37.81387
37.81387
37.81384
37.81384
37.73312
37.73312
37.73312
38.40373
38.49868
38.49868
38.49868
38.61262
38.61262
38.6126
38.6126
38.72663
38.61263
38.61263
38.4987
38.4987
38.4987
38.72664
38.61262
38.61262
38.40375
38.32664
38.32664
38.66426
38.66426
38.66426
38.66426
38.62833
38.62833
38.62833
38.62833
38.62833
38.47163
38.47163
38.47163
38.62832
38.62832
38.62832
38.62832
38.62832
38.47167
38.47167
38.47167
38.32668
38.32668
38.38892
38.38892
38.38892
38.38892
38.59806
38.59806
38.59806
38.59806
38.59806
38.54122
38.54122
38.16382
38.16382
38.16382
38.59807
38.59807
38.59807
38.59807
38.59807
38.54126
38.54126
38.16385
38.16385
38.16385
38.06692
38.06692
38.06692
38.06692
38.21316
38.21316
38.21316
38.21316
38.17461
38.17461
38.17461
38.10188
38.10188
38.06695
38.06695
38.06695
38.06695
38.21318
38.21318
38.21318
38.21318
38.17465
38.17465
38.17465
38.28039
38.28039
38.28039
38.28039
38.28039
38.28039
38.28039
38.28039
38.06754
38.06754
38.06754
38.06754
37.89198
37.89198
37.89198
37.95849
37.95849
37.95849
37.95849
38.28044
38.28044
38.28044
38.28044
38.28044
38.28044
38.28044
38.28044
38.06759
38.06759
38.06759
38.06759
37.89205
37.89205
37.89205
38.05993
38.05993
38.05993
37.91991
37.91991
38.17185
38.17185
38.17185
38.17185
38.17185
38.17185
38.01912
38.01912
38.01912
37.91995
37.91995
38.17188
38.17188
38.17188
38.17188
38.17188
38.17188
38.01913
38.01913
38.01913
37.78635
37.78635
37.89064
37.75703
38.01652
38.01652
38.01652
38.01652
38.01652
38.01654
38.01654
38.01654
38.01654
38.01654
37.89064
37.75702
37.9441
37.9441
37.9441
37.9441
37.91657
37.91657
37.91657
37.91657
37.91657
37.73747
37.73747
37.73747
37.82082
37.82082
37.94409
37.94409
37.94409
37.94409
37.91662
37.91662
37.91662
37.91662
37.91662
37.73753
37.73753
37.73753
37.73308
37.73308
37.73308
37.81385
37.81385
37.6327
37.81767
37.81767
37.81767
37.81766
37.81766
37.81766
37.81766
37.81766
37.81766
37.63274
37.81771
37.81771
37.81771
37.81387
37.81387
37.59008
37.59006
38.40372
38.61259
38.61259
38.72661
38.49864
38.49864
38.49864
38.61258
38.61258
38.72663
38.61261
38.61261
38.6126
38.6126
38.49867
38.49867
38.49867
38.40374
38.32663
38.32663
38.6642
38.6642
38.6642
38.6642
38.62828
38.62828
38.62828
38.62828
38.62828
38.47166
38.47166
38.47166
38.6642
38.6642
38.6642
38.6642
38.62829
38.62829
38.62829
38.62829
38.62829
38.32668
38.32668
38.5412
38.5412
38.1638
38.1638
38.1638
38.38884
38.38884
38.38884
38.38884
38.59788
38.59788
38.59788
38.59788
38.59788
38.16383
38.16383
38.16383
38.38889
38.38889
38.38889
38.38889
38.59794
38.59794
38.59794
38.59794
38.59794
38.17458
38.17458
38.17458
38.10174
38.10174
38.0668
38.0668
38.0668
38.0668
38.21315
38.21315
38.21315
38.21315
38.1746
38.1746
38.1746
38.10178
38.10178
38.06684
38.06684
38.06684
38.06684
37.89194
37.89194
37.89194
37.95834
37.95834
37.95834
37.95834
38.28025
38.28025
38.28025
38.28025
38.28025
38.28025
38.28025
38.28025
38.06755
38.06755
38.06755
38.06755
37.89201
37.89201
37.89201
37.9584
37.9584
37.9584
37.9584
38.28028
38.28028
38.28028
38.28028
38.28028
38.28028
38.28028
38.28028
38.17178
38.17178
38.17178
38.17178
38.17178
38.17178
38.01904
38.01904
38.01904
38.05988
38.05988
38.05988
37.91988
37.91988
38.01908
38.01908
38.01908
38.0599
38.0599
38.0599
37.91989
37.91989
37.89056
37.75697
37.78633
37.78633
38.01642
38.01642
38.01642
38.01642
38.01642
38.01648
38.01648
38.01648
38.01648
38.01648
37.75696
37.78632
37.78632
37.73743
37.73743
37.73743
37.82073
37.82073
37.94404
37.94404
37.94404
37.94404
37.91654
37.91654
37.91654
37.91654
37.91654
37.73747
37.73747
37.73747
37.8208
37.8208
37.94403
37.94403
37.94403
37.94403
37.81379
37.81379
37.73306
37.73306
37.73306
37.81762
37.81762
37.81762
37.63269
37.81767
37.81767
37.81767
37.81766
37.81766
37.81766
37.81764
37.81764
37.81764
37.63273
37.73304
37.73304
37.73304
37.59004
38.40371
38.40372
38.40645
38.36467
38.36467
38.36468
38.36468
38.47159
38.47159
38.47159
38.62822
38.62822
38.62822
38.62822
38.62822
38.66425
38.66425
38.66425
38.66425
38.47162
38.47162
38.47162
38.62832
38.62832
38.62832
38.62832
38.62832
38.36473
38.36473
38.36474
38.36474
38.29534
38.29534
38.56884
38.56884
38.56884
38.56884
38.41797
38.41797
38.56887
38.56887
38.56887
38.56887
38.5689
38.5689
38.5689
38.5689
38.41802
38.41802
38.29539
38.29539
38.37455
38.37455
38.34107
38.34107
38.34107
38.03781
38.03781
38.03781
38.50748
38.50748
38.50748
38.50753
38.50753
38.50753
38.34114
38.34114
38.34114
38.03786
38.03786
38.03786
38.23405
38.23405
38.23405
38.00553
38.00553
38.00553
38.33835
38.33835
38.33835
38.33835
38.13144
38.13144
38.13144
38.33841
38.33841
38.33841
38.33841
38.13149
38.13149
38.13149
38.00558
38.00558
38.00558
37.86953
37.86953
37.86953
38.13336
38.13336
38.13336
38.13336
38.00458
38.00458
38.00458
38.00458
38.1334
38.1334
38.1334
38.1334
38.13338
38.13338
38.13338
38.13338
38.00463
38.00463
38.00463
38.00463
38.13339
38.13339
38.13339
38.13339
37.79816
37.97324
37.97324
37.97324
37.79826
38.01646
38.01646
38.01646
38.01646
38.01646
38.0165
38.0165
38.0165
38.0165
38.0165
37.97322
37.97322
37.97322
37.79824
37.97322
37.97322
37.97322
37.79824
37.94402
37.94402
37.94402
37.94402
37.82076
37.82076
37.91656
37.91656
37.91656
37.91656
37.91656
37.73748
37.73748
37.73748
37.94405
37.94405
37.94405
37.94405
37.91652
37.91652
37.91652
37.91652
37.91652
37.82082
37.82082
37.73744
37.73744
37.73744
37.81382
37.81382
37.73305
37.73305
37.73305
38.32661
38.32661
38.32662
38.32662
38.29545
38.29545
38.54115
38.54115
38.59795
38.59795
38.59795
38.59795
38.59795
38.16378
38.16378
38.16378
38.3889
38.3889
38.3889
38.3889
38.59802
38.59802
38.59802
38.59802
38.59802
38.1638
38.1638
38.1638
38.29549
38.29549
38.37481
38.37481
38.03791
38.03791
38.03791
38.34139
38.34139
38.34139
38.1018
38.1018
38.21311
38.21311
38.21311
38.21311
38.06687
38.06687
38.06687
38.06687
38.17457
38.17457
38.17457
38.21311
38.21311
38.21311
38.21311
38.10182
38.10182
38.17457
38.17457
38.17457
38.06688
38.06688
38.06688
38.06688
38.34141
38.34141
38.34141
38.03794
38.03794
38.03794
38.23432
38.23432
38.23432
38.00566
38.00566
38.00566
38.28033
38.28033
38.28033
38.28033
38.28033
38.28033
38.28033
38.28033
37.95842
37.95842
37.95842
37.95842
38.06752
38.06752
38.06752
38.06752
37.89199
37.89199
37.89199
38.28035
38.28035
38.28035
38.28035
38.28035
38.28035
38.28035
38.28035
38.06752
38.06752
38.06752
38.06752
37.95843
37.95843
37.95843
37.95843
37.89198
37.89198
37.89198
38.00568
38.00568
38.00568
37.8696
37.8696
37.8696
38.17179
38.17179
38.17179
38.17179
38.17179
38.17179
37.91987
37.91987
38.01906
38.01906
38.01906
38.05991
38.05991
38.05991
38.01904
38.01904
38.01904
37.91989
37.91989
37.89057
37.75697
37.78631
37.78631
37.75693
37.90849
37.90849
37.90849
37.90849
37.90841
37.90841
)
;
        refGradient     uniform 0;
        valueFraction   nonuniform List<scalar> 
1228
(
0.3728183
0.3570388
0.456125
0.4584785
0.1450329
0.4407759
0.202841
0.402475
0.3749307
0.3673071
0.1043198
0.453334
0.4484676
0.4537796
0.3519363
0.3748516
0.3739564
0.4278627
0.7233456
0.4197593
0.5041911
0.5362914
0.5387117
0.5735135
0.6000745
0.5522824
0.5615569
0.5459027
0.2256138
0.3330238
0.5407556
0.5406831
0.3706317
0.6499769
0.2670803
0.2370126
0.498231
0.4661144
0.5999459
0.4246568
0.2361029
0.6627982
0.551867
0.2835283
0.5406488
0.5076032
0.3503648
0.2787041
0.5070174
0.3427575
0.3727362
0.3569531
0.4024137
0.2028416
0.3748534
0.3672405
0.3338523
0.3106214
0.2393863
0.416469
0.2429892
0.2370154
0.4982324
0.267908
0.3341589
0.3551684
0.3519233
0.3748499
0.3739548
0.4812285
0.2200653
0.4561085
0.4584728
0.4407535
0.1450304
0.104317
0.4533155
0.4484529
0.4537722
0.5567208
0.5958525
0.5958188
0.477636
0.5105292
0.4287964
0.141239
0.4661125
0.599936
0.2361025
0.4246563
0.6627974
0.4491432
0.1771485
0.2371056
0.283525
0.5406358
0.551855
0.5076001
0.2665736
0.7233348
0.4197524
0.4278583
0.5041864
0.3323334
0.3481571
0.3484008
0.3659814
0.3409458
0.3480817
0.1629316
0.4110004
0.3706268
0.649971
0.2670781
0.4725932
0.328966
0.2679078
0.3341586
0.3551681
0.4491423
0.1771483
0.3503582
0.5070058
0.3427516
0.2787012
0.4811858
0.2200609
0.3323231
0.3481291
0.3484085
0.3660176
0.3409464
0.3338468
0.3106187
0.2393831
0.5567156
0.5958401
0.5958038
0.5105257
0.477634
0.4287951
0.4109304
0.1629315
0.348083
0.416463
0.2429881
0.1412397
0.1969379
0.3074178
0.3074179
0.1969387
0.1859663
0.3110904
0.3262541
0.4045135
0.394601
0.3427663
0.2787668
0.3504402
0.5070533
0.2200802
0.4812445
0.4018667
0.5572392
0.4851738
0.695783
0.648898
0.3262562
0.3946038
0.4045203
0.220082
0.4812482
0.3427645
0.350445
0.2787691
0.5070658
0.6957729
0.4851726
0.6488939
0.4018629
0.5572341
0.1859719
0.3110971
0.3481599
0.3323394
0.311546
0.3136901
0.3333006
0.3751257
0.3706127
0.3950966
0.4584714
0.4561221
0.1450329
0.4407734
0.2130455
0.4169701
0.2238215
0.4120189
0.105499
0.1436917
0.1257418
0.3728257
0.3570442
0.1436917
0.105499
0.1257418
0.2238216
0.2130456
0.4169729
0.4120203
0.3481676
0.3323453
0.3751286
0.3706157
0.3950985
0.3136917
0.311552
0.3332975
0.36599
0.3484093
0.3409535
0.3147365
0.2709852
0.1890079
0.1043198
0.4533336
0.4537796
0.4484675
0.3986071
0.3866663
0.3612595
0.5704125
0.6502715
0.5262211
0.443757
0.6223376
0.7262828
0.5673881
0.7180829
0.202841
0.4024764
0.3749312
0.3673071
0.3866663
0.3986071
0.3612595
0.6502715
0.5704125
0.7262829
0.6223376
0.7180829
0.5673881
0.5262211
0.443757
0.3659914
0.3484093
0.3409535
0.3147365
0.2709852
0.1890079
0.1629335
0.3480843
0.4110049
0.3106291
0.3338518
0.2393852
0.5958229
0.5958624
0.5105326
0.5567275
0.4287987
0.4776394
0.1640309
0.2963291
0.287229
0.3345722
0.1785856
0.5958624
0.5958229
0.5567275
0.5105326
0.4776394
0.4287987
0.3106291
0.3338518
0.2393852
0.3345722
0.287229
0.1785856
0.1640309
0.2963291
0.4110049
0.1629335
0.3480843
0.4164401
0.2429881
0.1412397
0.3920032
0.1412397
0.2429881
0.4164401
0.3920032
0.1963651
0.1963669
0.3151052
0.3296924
0.2665736
0.3296969
0.3150862
0.3739554
0.3748498
0.3519364
0.3636982
0.5532705
0.6210422
0.5983029
0.6484362
0.5076012
0.2835265
0.5406369
0.5518584
0.5983079
0.3637098
0.6484553
0.5532899
0.621057
0.540642
0.2835395
0.5076088
0.5518747
0.315112
0.3297043
0.2665833
0.3296995
0.3150772
0.1859286
0.3110681
0.5041895
0.4278583
0.4197425
0.7233306
0.2744482
0.4097746
0.5043022
0.4197265
0.4278279
0.723323
0.2744524
0.4097821
0.4197124
0.5043023
0.4278337
0.723321
0.1859388
0.3110793
0.3116234
0.3137692
0.3333772
0.3481334
0.3323293
0.3751769
0.3706852
0.3951425
0.53872
0.536294
0.5735146
0.3137702
0.3116291
0.333374
0.3481493
0.332335
0.3751795
0.3706864
0.3951436
0.3660268
0.3484172
0.3409537
0.3147283
0.2709718
0.1890075
0.3861597
0.4143855
0.3498658
0.6000789
0.5615503
0.5522831
0.545904
0.4143867
0.3861604
0.3498658
0.3660274
0.3484177
0.3409537
0.3147283
0.2709718
0.1890075
0.1629335
0.410936
0.348087
0.5252861
0.6368672
0.5484956
0.5001364
0.5252878
0.6367979
0.5483453
0.5001345
0.5407556
0.3330238
0.2256138
0.5406836
0.6368672
0.5001364
0.5252861
0.5484956
0.5252878
0.6367982
0.5483453
0.5001345
0.348087
0.1629335
0.4109364
0.6499769
0.3706317
0.2670803
0.205218
0.6500013
0.3706298
0.2670848
0.2052211
0.6989147
0.3832091
0.4681547
0.5874229
0.804327
0.6989147
0.804327
0.5874229
0.4681547
0.3832091
0.205218
0.3706298
0.2670848
0.6500013
0.2052211
0.4246568
0.5999459
0.4661144
0.2361029
0.6627982
0.1437962
0.4710378
0.3868811
0.4739038
0.5991213
0.3851856
0.7470368
0.2370126
0.498231