/*--------------------------------*- C++ -*----------------------------------*\
| =========                 |                                                 |
| \\      /  F ield         | OpenFOAM: The Open Source CFD Toolbox           |
|  \\    /   O peration     | Version:  5.x                                   |
|   \\  /    A nd           | Web:      www.OpenFOAM.org                      |
|    \\/     M anipulation  |                                                 |
\*---------------------------------------------------------------------------*/
FoamFile
{
    version     2.0;
    format      ascii;
    class       volScalarField;
    location    "20/tumor";
    object      T;
}
// * * * * * * * * * * * * * * * * * * * * * * * * * * * * * * * * * * * * * //

dimensions      [0 0 0 1 0 0 0];

internalField   nonuniform List<scalar> 
636
(
38.96589
38.93892
39.17102
39.14621
38.81228
38.78307
38.9262
39.74671
39.29581
38.8641
39.79318
40.19941
40.02116
39.29032
39.83495
40.24757
40.09747
39.41012
39.2322
39.86234
39.73344
39.17249
38.64153
39.1561
39.11122
38.55049
39.00695
38.98595
39.74737
40.12719
39.9587
39.26531
38.96592
40.20021
40.60493
40.44279
39.78738
38.8556
39.171
40.24811
40.66124
40.50453
39.94168
39.05446
38.81224
39.86245
40.30601
40.1511
39.66628
38.64921
39.15605
39.59442
39.41264
39.00841
38.90791
38.7981
38.44026
38.98587
38.97586
39.29569
39.95808
39.81989
39.2275
38.93884
40.02068
40.44244
40.289
39.75246
38.82047
39.14603
40.0968
40.50426
40.34545
39.91018
39.03346
38.78271
39.73232
40.15093
39.9867
39.62549
38.67309
39.1107
39.41245
39.24845
38.95659
38.79799
38.70759
38.44018
38.37266
38.86396
39.26511
39.22751
38.79018
39.2902
39.78721
39.75278
39.19215
39.40984
39.94144
39.91016
39.32711
39.17062
39.66592
39.62522
39.06145
38.54979
39.00811
38.95636
38.39832
38.85552
38.82053
39.05436
39.03343
38.64908
38.67306
38.97573
38.97234
39.03442
39.17868
39.23965
38.95414
39.17461
38.95711
38.91797
38.94728
39.18814
39.06014
39.32173
39.01377
39.11992
39.1756
39.39518
39.44798
39.52299
39.58676
39.10092
38.88943
39.37662
39.20896
39.48193
39.32376
38.88032
38.98341
38.97318
38.85258
39.10286
39.36049
38.99827
39.26663
39.21436
39.04345
39.09384
39.56838
39.62412
39.46116
39.53092
38.94127
39.01466
38.80179
39.53105
39.36665
39.41413
39.27
39.01246
38.93295
38.81722
39.06929
38.77936
38.87874
39.27012
39.30802
39.04071
39.09706
39.22806
39.07194
39.0191
38.86195
38.77107
38.55989
38.71047
38.7846
38.71945
38.55929
38.99322
39.00111
39.07177
39.19798
39.28027
38.97567
39.19341
38.96702
38.97579
39.10614
39.10857
39.41518
39.10631
39.4057
39.41558
39.63305
39.06526
39.57272
39.44226
39.54932
39.43006
39.81078
39.70524
39.0287
39.03233
39.35235
38.88915
38.94727
39.0601
39.18816
38.91795
39.32172
38.84616
39.392
38.9547
39.5475
39.11347
39.68292
39.26244
38.805
39.10277
38.99814
38.97315
39.36044
38.85256
39.26658
38.98601
39.35183
38.88836
39.71657
39.2924
39.64565
39.17852
38.85893
38.71511
38.81719
39.06938
38.77945
39.49038
38.87794
39.28013
39.49129
39.73086
39.28082
39.56074
38.73508
38.92684
38.51295
39.44926
38.98813
39.18726
38.74357
38.88901
38.56269
38.88919
39.20954
38.56273
38.82273
39.19424
38.74297
38.78201
39.41011
39.43965
39.03354
39.06119
38.9319
38.70271
38.51647
39.34101
39.16703
38.97747
38.78893
38.83541
38.46592
38.46099
38.52668
38.67584
38.7058
38.51854
38.52829
38.62467
38.44806
38.44659
39.00126
39.19816
39.07192
39.28044
39.08218
39.36683
39.42416
39.08218
39.21866
39.42416
39.5175
39.34078
39.21008
39.0613
39.39938
39.27823
38.94103
39.0055
38.97243
39.17877
39.03449
39.23974
38.88642
39.52166
39.10381
39.34156
38.94749
39.59942
39.17376
39.39522
39.11992
39.52304
39.01378
39.44801
39.17558
39.58678
39.30695
39.91021
39.43712
39.84673
39.3661
39.96845
39.51768
39.01279
38.90272
39.06785
39.56838
39.04342
39.46112
39.2143
39.62406
39.09374
39.53076
38.90737
39.10075
38.96514
39.27006
39.04065
38.87859
39.30774
39.09681
39.16653
39.40795
38.91553
39.71378
39.21359
39.45619
38.96665
38.72845
38.71043
38.78443
39.41005
38.74293
39.03349
39.19408
39.43953
38.78188
39.06108
38.58804
38.63152
39.04422
38.62212
38.66711
38.67581
38.51852
38.70572
38.52822
38.93879
38.70344
38.71265
38.93876
38.9867
38.71262
38.76215
38.62096
38.59825
38.43664
38.85034
38.66206
38.65298
38.47214
38.51423
38.51421
38.62085
38.48322
38.97562
39.19331
38.96687
39.06122
39.34062
39.39923
39.20989
39.27806
39.31332
39.17941
39.17939
38.98699
38.91573
38.95408
39.1745
38.95698
39.54908
39.57253
39.81037
39.06507
39.42973
39.44196
39.70479
38.86071
39.48582
39.0773
38.99697
39.30932
38.83915
39.37647
39.10081
39.48172
39.2088
38.88936
39.32353
39.29198
39.87887
39.41858
39.53741
39.08066
39.6914
39.23839
38.99061
38.76338
39.5307
39.01439
39.41349
38.94115
39.36621
38.8018
39.26877
39.46756
39.83271
39.37063
39.7161
39.23524
39.63712
39.14002
38.90142
38.79636
38.68676
39.22696
39.01824
39.06523
38.85693
39.14252
39.36462
38.89282
39.4338
38.94492
39.15364
38.68735
38.50613
38.71898
38.55795
39.34054
38.70242
38.9772
38.93114
39.16648
38.51609
38.78861
38.55066
38.57458
38.76495
38.37573
38.38361
38.6245
38.44645
38.44786
38.85026
38.59815
38.65292
38.62084
38.66196
38.43651
38.47206
38.54953
38.52464
38.36768
38.54951
38.36852
38.36766
38.48317
38.94089
39.00538
38.91573
39.03216
39.02855
39.35213
38.88904
39.34136
39.52141
39.59914
38.88629
38.94738
39.10367
39.17363
38.99731
39.48574
39.31036
38.86072
39.0773
38.83933
38.93495
38.88024
38.98332
39.5473
39.39183
39.68268
38.8461
39.11335
38.95461
39.2623
39.8466
39.91002
39.96832
39.30683
39.36601
39.43699
39.51758
39.5393
39.87902
39.69219
39.29207
39.08095
39.41861
39.23847
38.77101
39.34619
38.90878
38.77091
38.9086
39.01237
38.93285
39.71624
39.35123
39.64517
38.98591
39.29223
38.88826
39.17831
39.71637
39.83259
39.63738
39.46752
39.23528
39.37057
39.14007
38.89093
39.23602
38.79902
38.89087
38.79897
38.77343
38.55752
39.44844
38.92406
39.18632
38.73497
38.98783
38.51248
38.74318
39.71352
39.40757
39.4559
39.1663
39.21341
38.91528
38.96645
39.43417
39.36415
39.15423
39.14242
38.94499
38.89263
38.68745
38.61465
38.78851
38.37966
38.61462
38.37966
38.8349
38.4607
38.46562
39.04397
38.63131
38.66694
38.58783
38.62195
38.76504
38.57448
38.38362
38.55053
38.37576
38.80493
38.90267
39.01271
39.0678
38.99064
38.76344
38.85885
38.71503
39.10068
38.90726
38.96506
38.79637
38.9014
38.68677
38.72834
38.50614
39.48374
39.86439
39.35919
39.99963
39.55196
39.92009
39.44677
39.99945
39.86412
39.91989
39.48358
39.55183
39.359
39.44662
)
;

boundaryField
{
    tumor_to_gland
    {
        type            compressible::turbulentTemperatureCoupledBaffleMixed;
        refValue        nonuniform List<scalar> 
1125
(
38.6627
38.6627
38.6627
38.6627
38.6627
38.6627
38.50976
38.50976
38.50976
38.65233
38.65233
38.65233
38.65233
38.62357
38.62357
38.2921
38.2921
38.2921
38.56561
38.56561
38.56561
38.56561
38.43742
38.43742
38.43742
38.43742
38.75514
38.75514
38.75514
38.75514
38.64475
38.64475
38.64475
38.66002
38.66002
38.66002
38.66002
38.66002
38.65231
38.65231
38.65231
38.65231
38.62355
38.62355
38.29212
38.29212
38.29212
38.3451
38.3451
38.3451
38.3451
38.75522
38.75522
38.75522
38.75522
38.66275
38.66275
38.66275
38.66275
38.66275
38.66275
38.31775
38.31775
38.31775
38.31775
38.24557
38.24557
38.56553
38.56553
38.56553
38.56553
38.17726
38.17726
38.17726
38.17726
38.02397
38.02397
38.02397
38.02397
38.02397
38.02397
37.83224
37.83224
37.83224
37.83224
38.64469
38.64469
38.64469
38.81274
38.81274
38.81274
38.81274
38.50972
38.50972
38.50972
38.16698
38.16698
38.16698
38.08638
38.08638
38.43741
38.43741
38.43741
38.43741
38.0032
38.0032
38.0032
38.0032
37.83219
37.83219
37.83219
37.83219
38.65992
38.65992
38.65992
38.65992
38.65992
38.46522
38.46522
38.46522
38.46522
38.3856
38.3856
38.02794
38.02794
38.17713
38.17713
38.17713
38.17713
38.00318
38.00318
38.00318
38.00318
38.31772
38.31772
38.31772
38.31772
38.16698
38.16698
38.16698
38.24552
38.24552
38.08636
38.08636
38.37244
38.37244
38.35922
38.35922
38.37642
38.37642
38.37642
38.40366
38.40366
38.40366
38.40366
38.47164
38.47164
38.47164
38.47164
38.4561
38.4561
38.4561
38.4561
38.50068
38.50068
38.50068
38.50068
38.4835
38.4835
38.4835
38.4835
38.33375
38.33375
38.33375
38.35469
38.35469
38.35469
38.35469
38.34437
38.34437
38.22082
38.22082
38.22082
38.43366
38.43366
38.4141
38.4141
38.30013
38.30013
38.27892
38.27892
38.28888
38.28888
38.16393
38.16393
38.16393
38.67153
38.67153
38.67153
38.73311
38.73311
38.73311
38.73311
38.71849
38.71849
38.71849
38.71849
38.64203
38.64203
38.64203
38.53875
38.53875
38.53875
38.51558
38.51558
38.51558
38.77625
38.77625
38.77625
38.77625
38.7465
38.7465
38.7465
38.7465
38.65345
38.65345
38.65345
38.65345
38.65345
38.65345
38.75018
38.75018
38.75018
38.75018
38.75018
38.45335
38.45335
38.45335
38.69263
38.69263
38.69263
38.69263
38.69263
38.40356
38.40356
38.74286
38.74286
38.74286
38.74286
38.40355
38.40355
38.68111
38.68111
38.68111
38.68111
38.57905
38.57905
38.57905
38.57905
38.60217
38.60217
38.60217
38.60217
38.28039
38.28039
38.28039
38.63937
38.63937
38.63937
38.63937
38.24515
38.24515
38.35556
38.35554
38.59252
38.59252
38.59252
38.59252
38.52482
38.52482
38.52482
38.52747
38.52747
38.52747
38.40238
38.40238
38.40238
38.58287
38.58287
38.58287
38.58287
38.40646
38.40646
38.49884
38.49884
38.49884
38.49884
38.21948
38.21948
38.21948
38.43954
38.43954
38.43954
38.43954
38.43954
38.53902
38.53902
38.53902
38.53902
38.28626
38.28626
38.26037
38.26037
38.16356
38.14182
38.14182
38.28908
38.28908
38.28908
38.28908
38.34678
38.34678
38.34678
38.34678
38.31788
38.31788
38.31788
38.31788
38.46771
38.46771
38.46771
38.46771
38.55967
38.55967
38.55967
38.5465
38.5465
38.5465
38.43831
38.43831
38.43831
38.43831
38.6716
38.6716
38.6716
38.6745
38.6745
38.6745
38.7723
38.7723
38.7723
38.7723
38.67455
38.67455
38.67455
38.74215
38.74215
38.74215
38.74215
38.71908
38.71908
38.71908
38.71908
38.62698
38.62698
38.62698
38.58845
38.58845
38.58845
38.58845
38.74652
38.74652
38.74652
38.74652
38.51559
38.51559
38.51559
38.53878
38.53878
38.53878
38.77628
38.77628
38.77628
38.77628
38.39871
38.39871
38.39871
38.43181
38.43181
38.43181
38.66455
38.66455
38.66455
38.66455
38.66455
38.37642
38.37642
38.37642
38.40365
38.40365
38.40365
38.40365
38.68108
38.68108
38.68108
38.68108
38.52262
38.52262
38.52262
38.52262
38.54047
38.54047
38.54047
38.54047
38.22274
38.22274
38.22274
38.23595
38.23595
38.23595
38.23595
38.34437
38.34437
38.22081
38.22081
38.22081
38.52482
38.52482
38.52482
38.4567
38.4567
38.33816
38.33816
38.33816
38.15812
38.15812
38.01517
38.01517
38.43957
38.43957
38.43957
38.43957
38.43957
38.49884
38.49884
38.49884
38.49884
38.21947
38.21947
38.21947
38.08887
38.08887
38.08887
38.243
38.243
38.243
38.30751
38.30751
38.30751
38.30751
38.30751
38.00894
38.00894
38.1022
38.1022
38.1022
38.1022
38.1022
38.10218
38.10218
38.10218
38.10218
38.10218
38.36349
38.36349
38.36349
38.36349
38.23858
38.23858
38.23858
38.23858
38.23858
38.23858
38.20757
38.20757
38.20757
38.20757
38.20757
38.20757
38.23427
38.23427
38.23427
38.23427
38.01966
38.01966
38.01966
38.01966
38.27417
38.27417
38.27417
38.27417
38.27417
37.98055
37.98055
37.98055
37.98055
37.91696
37.91696
37.91696
37.91696
37.91696
37.88298
37.88298
37.88298
37.88298
38.55967
38.55967
38.55967
38.54647
38.54647
38.54647
38.64682
38.64682
38.64682
38.64682
38.6301
38.6301
38.6301
38.6301
38.63007
38.63007
38.63007
38.63007
38.61855
38.61855
38.61855
38.61855
38.52154
38.52154
38.52154
38.52154
38.50271
38.50271
38.50271
38.50271
38.73318
38.73318
38.73318
38.73318
38.71848
38.71848
38.71848
38.71848
38.74215
38.74215
38.74215
38.74215
38.69691
38.69691
38.69691
38.69691
38.68157
38.68157
38.68157
38.68157
38.64922
38.64922
38.64922
38.64922
38.63085
38.63085
38.63085
38.63085
38.37245
38.37245
38.35922
38.35922
38.65344
38.65344
38.65344
38.65344
38.65344
38.65344
38.55615
38.55615
38.55615
38.55615
38.55615
38.55615
38.53963
38.53963
38.53963
38.53963
38.53963
38.53963
38.22702
38.22702
38.20911
38.20911
38.47165
38.47165
38.47165
38.47165
38.50068
38.50068
38.50068
38.50068
38.4561
38.4561
38.4561
38.4561
38.4835
38.4835
38.4835
38.4835
38.33197
38.33197
38.33197
38.33197
38.29781
38.29781
38.29781
38.29781
38.31025
38.31025
38.31025
38.31025
38.43365
38.43365
38.30012
38.30012
38.41411
38.41411
38.27895
38.27895
38.09308
38.09308
38.22124
38.22124
38.06815
38.06815
38.2862
38.2862
38.53881
38.53881
38.53881
38.53881
38.26026
38.26026
38.37017
38.37017
38.37017
38.37017
38.07844
38.07844
38.3444
38.3444
38.3444
38.3444
38.04896
38.04896
38.34672
38.34672
38.34672
38.34672
38.31772
38.31772
38.31772
38.31772
38.23853
38.23853
38.23853
38.23853
38.23853
38.23853
38.20747
38.20747
38.20747
38.20747
38.20747
38.20747
38.12674
38.12674
38.12674
38.12674
38.12674
38.12674
38.09011
38.09011
38.09011
38.09011
38.09011
38.09011
38.14462
38.14462
38.14462
38.14462
37.91693
37.91693
37.91693
37.91693
37.91693
37.88293
37.88293
37.88293
37.88293
37.98764
37.98764
37.98764
37.98764
37.9876
37.9876
37.9876
37.9876
37.9501
37.9501
37.9501
37.9501
37.7981
37.7981
37.7981
37.7981
38.43826
38.43826
38.43826
38.43826
38.52149
38.52149
38.52149
38.52149
38.50269
38.50269
38.50269
38.50269
38.64197
38.64197
38.64197
38.62688
38.62688
38.62688
38.71896
38.71896
38.71896
38.71896
38.69682
38.69682
38.69682
38.69682
38.68153
38.68153
38.68153
38.68153
38.52669
38.52669
38.52669
38.52669
38.5267
38.5267
38.5267
38.5267
38.65025
38.65025
38.65025
38.65025
38.5466
38.5466
38.5466
38.5466
38.75011
38.75011
38.75011
38.75011
38.75011
38.69253
38.69253
38.69253
38.69253
38.69253
38.45333
38.45333
38.45333
38.38397
38.38397
38.38397
38.61462
38.61462
38.61462
38.61462
38.61462
38.58222
38.58222
38.58222
38.58222
38.58222
38.31385
38.31385
38.31385
38.33378
38.33378
38.33378
38.35477
38.35477
38.35477
38.35477
38.57905
38.57905
38.57905
38.57905
38.60229
38.60229
38.60229
38.60229
38.42451
38.42451
38.42451
38.42451
38.41971
38.41971
38.41971
38.17205
38.17205
38.17205
38.17205
38.28908
38.28908
38.16427
38.16427
38.16427
38.52818
38.52818
38.52818
38.40618
38.40618
38.40618
38.33296
38.33296
38.18585
38.18585
37.93756
37.93756
38.14187
38.14187
38.16771
38.16771
38.28893
38.28893
38.28893
38.28893
38.21903
38.21903
38.21903
38.21903
37.92075
37.92075
37.94285
38.10643
38.10643
38.10643
38.01953
38.01953
38.01953
38.01953
38.27403
38.27403
38.27403
38.27403
38.27403
38.23403
38.23403
38.23403
38.23403
37.98043
37.98043
37.98043
37.98043
38.12664
38.12664
38.12664
38.12664
38.12664
38.12664
38.09005
38.09005
38.09005
38.09005
38.09005
38.09005
38.19053
38.19053
38.19053
38.19053
37.88914
37.88914
37.88914
37.88914
38.1076
38.1076
38.1076
37.88913
37.88913
37.88913
37.88913
37.79808
37.79808
37.79808
37.79808
38.58836
38.58836
38.58836
38.58836
38.64913
38.64913
38.64913
38.64913
38.63083
38.63083
38.63083
38.63083
38.54666
38.54666
38.54666
38.54666
38.43175
38.43175
38.43175
38.39867
38.39867
38.39867
38.66448
38.66448
38.66448
38.66448
38.66448
38.55608
38.55608
38.55608
38.55608
38.55608
38.55608
38.53962
38.53962
38.53962
38.53962
38.53962
38.53962
38.58226
38.58226
38.58226
38.58226
38.58226
38.38401
38.38401
38.38401
38.6147
38.6147
38.6147
38.6147
38.6147
38.31388
38.31388
38.31388
38.63934
38.63934
38.63934
38.63934
38.28059
38.28059
38.28059
38.24522
38.24522
38.52258
38.52258
38.52258
38.52258
38.54045
38.54045
38.54045
38.54045
38.42451
38.42451
38.42451
38.42451
38.4197
38.4197
38.4197
38.46948
38.46948
38.58316
38.58316
38.58316
38.58316
38.40782
38.40782
38.4567
38.4567
38.33817
38.33817
38.33817
38.33294
38.33294
38.18583
38.18583
38.2256
38.2256
38.24278
38.24278
38.24278
38.08883
38.08883
38.08883
38.30736
38.30736
38.30736
38.30736
38.30736
38.00883
38.00883
38.37005
38.37005
38.37005
38.37005
38.34432
38.34432
38.34432
38.34432
38.07833
38.07833
38.04889
38.04889
38.10642
38.10642
38.10642
38.21902
38.21902
38.21902
38.21902
37.94283
37.92072
37.92072
38.14454
38.14454
38.14454
38.14454
38.227
38.227
38.20911
38.20911
38.22271
38.22271
38.22271
38.23591
38.23591
38.23591
38.23591
38.2978
38.2978
38.2978
38.2978
38.33193
38.33193
38.33193
38.33193
38.31023
38.31023
38.31023
38.31023
38.17204
38.17204
38.17204
38.17204
38.15809
38.15809
38.01513
38.01513
38.22121
38.22121
38.09302
38.09302
38.06811
38.06811
37.93754
37.93754
38.62617
38.62617
38.62617
38.52951
38.52951
38.52951
38.42461
38.42461
38.42461
38.21346
38.21346
38.26438
38.26438
38.26438
38.26438
38.18264
38.18264
38.18264
38.18264
38.26437
38.26437
38.26437
38.26437
38.09249
38.09249
38.09249
38.09249
38.1824
38.1824
38.1824
38.1824
38.52947
38.52947
38.52947
38.39989
38.39989
38.39989
38.21438
38.21438
38.09234
38.09234
38.09234
38.09234
)
;
        refGradient     uniform 0;
        valueFraction   nonuniform List<scalar> 
1125
(
0.4221572
0.3325559
0.3929285
0.5022199
0.5387481
0.4434037
0.2963019
0.436099
0.2671888
0.2553111
0.3566239
0.5557758
0.431507
0.2755534
0.451751
0.3213549
0.2739288
0.469528
0.3929755
0.4679911
0.5926858
0.6324702
0.395794
0.6300081
0.5845408
0.4910267
0.3118533
0.3784205
0.5098446
0.551708
0.3168308
0.4654093
0.3105214
0.46296
0.560749
0.5664997
0.4528267
0.5596099
0.3566252
0.4315059
0.5557863
0.2553145
0.4516971
0.2755553
0.3213555
0.2739728
0.4696036
0.479228
0.3932906
0.393298
0.425124
0.3118537
0.5098518
0.3784235
0.5517081
0.4221587
0.3325569
0.502207
0.3929317
0.538753
0.4434053
0.2205436
0.3190206
0.2715986
0.3619843
0.3369681
0.3833142
0.3929745
0.5926833
0.4679889
0.6324684
0.4279275
0.4343975
0.4415438
0.4449722
0.2772022
0.1099248
0.1094426
0.1099248
0.1094426
0.1621047
0.1175968
0.1412005
0.159988
0.146693
0.3168277
0.4653949
0.3105164
0.5302997
0.6575671
0.6575688
0.4526496
0.2962995
0.4360853
0.2671841
0.2058337
0.2763471
0.1586854
0.3290953
0.2208077
0.3957926
0.5845363
0.6270455
0.4875762
0.407265
0.4083934
0.3008924
0.3068276
0.1175968
0.1412005
0.159988
0.146693
0.4629592
0.5664854
0.5607415
0.4528228
0.5596146
0.3741469
0.4634115
0.3740199
0.4633166
0.4910052
0.4909836
0.301125
0.3011697
0.4343948
0.4449615
0.4279314
0.4415396
0.40838
0.3068146
0.4072525
0.3008804
0.2205428
0.2715969
0.3190197
0.3619836
0.2058364
0.2763501
0.1586914
0.3369675
0.3833133
0.3290934
0.2208009
0.1589191
0.199915
0.1497424
0.2111124
0.1850569
0.1680525
0.2647361
0.3381187
0.1944226
0.3089375
0.2337509
0.2024931
0.2637586
0.310811
0.3589138
0.1979068
0.2778953
0.3691266
0.3047358
0.3885598
0.3575482
0.4015472
0.4132517
0.3798674
0.4107164
0.3562358
0.4223048
0.2004284
0.2747817
0.1571796
0.3480616
0.3234452
0.1932853
0.2228709
0.1730499
0.279582
0.156846
0.2011813
0.4108459
0.3280623
0.3699747
0.3805278
0.32265
0.1746089
0.2309759
0.17233
0.2447666
0.292881
0.1615266
0.1739483
0.1909145
0.4348863
0.2868702
0.3208494
0.4402256
0.2973093
0.3774233
0.3391306
0.4155218
0.3953527
0.287959
0.431603
0.3329413
0.3058975
0.3406443
0.4217832
0.2890191
0.2809211
0.4293363
0.308695
0.2775236
0.4519597
0.4122036
0.4918231
0.6534447
0.6581038
0.4322534
0.4708953
0.5510327
0.5460086
0.4039724
0.407575
0.5469187
0.3253799
0.4907907
0.4524142
0.4408014
0.6657219
0.4706486
0.5397723
0.6498464
0.3161462
0.4573507
0.2560159
0.4206009
0.4839262
0.554298
0.5565806
0.5252884
0.3335392
0.3282232
0.4557714
0.5733121
0.4557726
0.5733091
0.3335383
0.3282172
0.2950465
0.4801949
0.3654015
0.4904101
0.2882586
0.568989
0.3411868
0.4190587
0.3393115
0.4640167
0.3826337
0.463121
0.3290449
0.3243791
0.3863448
0.4846923
0.5877044
0.4424571
0.5622467
0.3193312
0.3149363
0.3013412
0.3013009
0.6147335
0.4443423
0.6147219
0.4443381
0.3324996
0.3212473
0.5188907
0.2933539
0.4965761
0.4503624
0.3466045
0.5808734
0.3867231
0.6680041
0.623762
0.6504292
0.5973379
0.4545004
0.4205749
0.3693871
0.5963872
0.3742721
0.5359704
0.2738453
0.2103775
0.4521214
0.4121423
0.5164024
0.5725272
0.5875683
0.4987741
0.392322
0.4843107
0.6405483
0.6155074
0.2283776
0.3012339
0.3144014
0.2839444
0.2112995
0.2792445
0.1815201
0.4306823
0.4205705
0.3883651
0.5276251
0.3653595
0.4358778
0.4099892
0.4329847
0.4481591
0.4185122
0.4472504
0.4097378
0.1720969
0.2988689
0.377955
0.377958
0.1944582
0.4355589
0.22901
0.1782382
0.4283108
0.2443902
0.1893479
0.3828272
0.2798165
0.3592978
0.4402688
0.3208505
0.2868723
0.3398811
0.2970786
0.4582078
0.3947996
0.4923431
0.5506551
0.550678
0.3398841
0.2970794
0.4582139
0.396053
0.560722
0.3041929
0.4986644
0.3782342
0.5070617
0.5544279
0.5275023
0.3475293
0.4631244
0.2756668
0.4503673
0.4733968
0.3432478
0.2706595
0.4322635
0.470927
0.5460551
0.5510765
0.3087165
0.2775248
0.4519727
0.2890318
0.2809232
0.4293363
0.4122072
0.4918367
0.6581098
0.6534436
0.3175189
0.285597
0.4466968
0.2992626
0.2943413
0.4262284
0.4060645
0.5200236
0.6669082
0.5592022
0.6604975
0.1850586
0.1680555
0.2647407
0.3381232
0.1944257
0.2337542
0.308942
0.4801949
0.2950497
0.4904025
0.3654048
0.3765658
0.4347452
0.559398
0.2479411
0.4792579
0.2931191
0.4796357
0.3536729
0.1934345
0.1779773
0.265696
0.3414448
0.2101087
0.2438372
0.3147785
0.1730511
0.2795838
0.1568458
0.2011823
0.410855
0.3325011
0.321216
0.5189197
0.4718311
0.265035
0.3266972
0.4164972
0.5640567
0.1825018
0.2860002
0.1633593
0.20626
0.4121498
0.5164419
0.5725781
0.5876119
0.4987786
0.3693869
0.5964086
0.3743095
0.5359769
0.2738718
0.4521493
0.2103789
0.2413809
0.3804672
0.3184767
0.4664965
0.4293592
0.343466
0.3695006
0.6384513
0.5106213
0.4317382
0.5869841
0.2073333
0.2725095
0.312672
0.4018729
0.2075593
0.3368774
0.2817752
0.3126676
0.2075535
0.4018655
0.3368694
0.2817684
0.3016011
0.2991848
0.2991848
0.4891518
0.482708
0.4952032
0.3877428
0.4122994
0.2438571
0.250933
0.5062787
0.4763241
0.4254997
0.2721882
0.3755677
0.223586
0.4921825
0.434698
0.3987435
0.4660281
0.4203351
0.3143317
0.3624767
0.2014502
0.4227066
0.2956257
0.3559554
0.5166021
0.3004401
0.3056849
0.2411505
0.3929843
0.3589544
0.1515791
0.1643752
0.234271
0.1133517
0.1140258
0.09402672
0.1782275
0.1361483
0.1209756
0.1944582
0.4355629
0.2290098
0.1782379
0.24439
0.4283032
0.2187276
0.2709058
0.2709057
0.3339626
0.1997586
0.2859671
0.3467749
0.2493027
0.1997584
0.285967
0.3467747
0.2493027
0.1681076
0.3582301
0.2623778
0.262378
0.2129443
0.4139937
0.2457028
0.4455203
0.1878733
0.249023
0.4434532
0.4101188
0.339131
0.4155249
0.2973101
0.3774266
0.4316037
0.395353
0.3329405
0.287958
0.3960536
0.5607194
0.3041918
0.4986544
0.5122219
0.5495024
0.2959661
0.3621359
0.5555272
0.3773123
0.5169123
0.278842
0.3704971
0.432773
0.290606
0.3634689
0.4476077
0.38187
0.3516209
0.2671006
0.1589205
0.1999164
0.1497435
0.2111135
0.4039724
0.4075743
0.5469167
0.452414
0.3253784
0.4907825
0.4186099
0.3603499
0.5082093
0.4083184
0.5414234
0.4338452
0.3943239
0.4226566
0.5495318
0.4432766
0.34687
0.4975212
0.1694391
0.2018381
0.1538602
0.2129903
0.2024947
0.3108162
0.2637601
0.3589173
0.3885647
0.3575531
0.4015504
0.4132551
0.1979081
0.2778965
0.3691287
0.3047347
0.3798647
0.4107183
0.4223062
0.3562351
0.395081
0.3715264
0.4070531
0.4198708
0.2084723
0.2855074
0.3721023
0.3106747
0.3923656
0.4159799
0.4285913
0.3647352
0.3280637
0.3699751
0.1746081
0.2309741
0.3805269
0.3226478
0.1723287
0.2447644
0.1830671
0.2478208
0.3926897
0.3601873
0.2309006
0.2584456
0.2283783
0.3012328
0.3923204
0.4843082
0.6405445
0.6155045
0.3143998
0.2839436
0.394383
0.6363971
0.6529053
0.4792686
0.3074525
0.3208968
0.4537508
0.6595687
0.4919709
0.6383645
0.3344234
0.299474
0.3653602
0.4358767
0.409988
0.432983
0.4481576
0.4472482
0.4185115
0.4097365
0.4827008
0.4951958
0.387736
0.2438523
0.4122927
0.2509281
0.5062773
0.425499
0.2721882
0.4763233
0.3755774
0.223586
0.4713785
0.4785684
0.4096089
0.279091
0.4302335
0.2808368
0.4898551
0.4415535
0.297637
0.4592046
0.3955077
0.2542671
0.4547706
0.4579586
0.419258
0.4208128
0.1515775
0.1643735
0.2342688
0.1133505
0.1140246
0.09402668
0.1782274
0.1209755
0.1361482
0.07144057
0.1200662
0.1856422
0.117702
0.07144054
0.1200661
0.1856421
0.117702
0.06503548
0.2075854
0.1368415
0.1368415
0.1164007
0.1723191
0.1597876
0.1254296
0.1893492
0.3828192
0.2798158
0.3592956
0.2129442
0.2457029
0.4139894
0.4455178
0.1878733
0.2490232
0.4434515
0.4101196
0.3406415
0.3058945
0.421762
0.3475227
0.4631161
0.2756655
0.3782331
0.5070553
0.554402
0.5274879
0.5122144
0.5494989
0.2959655
0.3621335
0.5555246
0.5169126
0.3773124
0.278844
0.4695705
0.3188875
0.2804155
0.4486397
0.4695718
0.3188875
0.2804193
0.4486788
0.3603355
0.5488973
0.5382609
0.5383292
0.3578641
0.2922176
0.4268413
0.4455161
0.4408033
0.6657112
0.4706426
0.6498421
0.5397723
0.4205997
0.4839195
0.5565575
0.525281
0.554292
0.3161405
0.4573435
0.2560077
0.3143008
0.4373348
0.2787263
0.4338611
0.6746851
0.5079647
0.6575433
0.5188933
0.4506654
0.5790654
0.4716932
0.5399627
0.5414278
0.3324836
0.4503705
0.2687756
0.2004295
0.2747798
0.1571796
0.3480565
0.3234436
0.1932853
0.2228683
0.5689828
0.2882587
0.3411779
0.419049
0.3393115
0.3826281
0.4640074
0.463116
0.5614576
0.2745455
0.3684391
0.4413033
0.3317674
0.3648093
0.4751532
0.3558055
0.3271346
0.2050447
0.2357558
0.2928768
0.1615226
0.1739472
0.1909113
0.4320536
0.2933449
0.4965716
0.4503567
0.3468192
0.5686865
0.3889991
0.351033
0.4708137
0.2651112
0.4124997
0.2173134
0.1444118
0.2792437
0.1815201
0.3887613
0.211993
0.4306812
0.3883651
0.5276243
0.4141614
0.4406789
0.6050781
0.5185296
0.3394091
0.2892752
0.1971776
0.2311974
0.4526132
0.389045
0.4340065
0.4203344
0.3143311
0.3624821
0.2014652
0.4227066
0.3559554
0.2956528
0.5166084
0.3004401
0.4921818
0.4346971
0.4660408
0.3987426
0.2411639
0.35896
0.3056845
0.3929761
0.409618
0.4302335
0.279091
0.2808368
0.4713711
0.4785531
0.4415471
0.2976316
0.3955016
0.2542622
0.4898355
0.459177
0.4717558
0.348967
0.2792334
0.348967
0.4045625
0.2872374
0.3799937
0.2414522
0.473085
0.4286746
0.4286641
0.3799902
0.2414494
0.4045448
0.2872196
0.1164007
0.1723191
0.1254296
0.1597876
0.3432467
0.4503544
0.4733954
0.2706563
0.3704965
0.432771
0.2906044
0.3634548
0.4476078
0.3516228
0.3818633
0.2670911
0.3578675
0.4269105
0.292214
0.4455144
0.2992604
0.294339
0.4262151
0.317516
0.2856012
0.4466888
0.4060615
0.520021
0.6604867
0.666903
0.5592018
0.4186093
0.3603488
0.4083091
0.5082006
0.5414054
0.4338437
0.3943252
0.4226526
0.5495221
0.3468648
0.4974935
0.4432768
0.4506791
0.5791336
0.4717219
0.5400568
0.5413484
0.3142998
0.4373342
0.2787268
0.4338665
0.6746876
0.5079702
0.6575512
0.518903
0.3325043
0.4504048
0.2686511
0.4846815
0.587694
0.4424605
0.5622453
0.3290376
0.3243758
0.3863414
0.3193306
0.3149313
0.376568
0.5593904
0.4347438
0.2479401
0.4792555
0.4796274
0.2931182
0.3536717
0.561476
0.3682994
0.4411969
0.2745574
0.4751404
0.3317762
0.3648028
0.4954829
0.4954657
0.668003
0.6237598
0.6504273
0.5973282
0.4492696
0.4205595
0.4718163
0.2650343
0.4164878
0.5640476
0.3266968
0.4708031
0.3510265
0.4125368
0.2651194
0.4380779
0.438087
0.4664957
0.4293584
0.3434651
0.2413802
0.3804656
0.3184762
0.3694998
0.6384441
0.5106202
0.5869778
0.4317378
0.2073328
0.2725082
0.3943826
0.6363924
0.6528885
0.4792664
0.4537525
0.6595552
0.6383045
0.4919706
0.3074519
0.3208895
0.334419
0.2994573
0.4526192
0.4340648
0.3890376
0.4406835
0.6050347
0.518538
0.3394146
0.2312634
0.2892654
0.1971683
0.4579503
0.4547694
0.4207969
0.4192432
0.1694385
0.2018366
0.1538616
0.2129905
0.1934332
0.1779769
0.2656942
0.341443
0.2101084
0.3147766
0.2438367
0.2084739
0.2855079
0.3721034
0.3106765
0.3950801
0.3715255
0.4070523
0.4198713
0.3923598
0.4159807
0.3647365
0.4285924
0.3558018
0.3271372
0.2050492
0.235749
0.1825015
0.2859988
0.1633587
0.2062597
0.3926903
0.3601826
0.1830669
0.2478191
0.230902
0.2584454
0.2173169
0.1444151
0.3223273
0.4565908
0.3223284
0.3411625
0.4664285
0.3035239
0.3785668
0.3785797
0.4199637
0.2948408
0.2535579
0.339715
0.5097014
0.283665
0.3723855
0.4095935
0.3078843
0.4013299
0.2817644
0.5097354
0.2836681
0.3397162
0.3723859
0.3167421
0.3216408
0.3911271
0.3968413
0.4095928
0.3078843
0.4013288
0.2817634
0.4664218
0.3411523
0.3035285
0.4707833
0.3124968
0.312374
0.2836543
0.2535528
0.3216404
0.3167417
0.396833
0.3911259
)
;
        value           nonuniform List<scalar> 
1125
(
38.83803
38.86881
38.88791
38.9194
38.92872
38.85844
38.82199
38.88462
38.83759
38.85083
38.84224
38.89044
38.88454
38.79104
38.83015
38.6504
38.64859
38.60492
38.71728
38.73393
38.76067
38.76235
38.64828
38.67345
38.68072
38.65556
38.92356
38.95124
38.97167
38.99012
38.87013
38.93761
38.86634
38.76931
38.82194
38.82124
38.78552
38.74237
38.84222
38.88451
38.89044
38.85081
38.83009
38.79101
38.65038
38.64864
38.60488
38.50187
38.48038
38.48041
38.45304
38.92368
38.97179
38.95136
38.99024
38.83807
38.86888
38.91947
38.88798
38.92878
38.85846
38.73772
38.79221
38.74478
38.79751
38.68642
38.69127
38.71722
38.76059
38.73381
38.76221
38.41531
38.4376
38.42874
38.45255
38.51984
38.4668
38.46704
38.46678
38.46702
38.5301
38.37524
38.3574
38.37582
38.39408
38.87007
38.93753
38.86622
38.88894
38.93811
38.93811
38.90772
38.82193
38.88455
38.83749
38.68698
38.76437
38.67041
38.63538
38.5568
38.64806
38.68036
38.67283
38.65446
38.33102
38.34497
38.26768
38.27141
38.37516
38.35729
38.37574
38.39403
38.7692
38.82111
38.82182
38.78542
38.74229
38.65749
38.70425
38.65746
38.7042
38.59772
38.59771
38.27727
38.27725
38.43743
38.4524
38.41513
38.4286
38.34491
38.27143
38.33094
38.2677
38.73765
38.74474
38.79214
38.79747
38.68703
38.76439
38.67045
38.68633
38.6912
38.63536
38.5568
38.87178
38.88604
38.85259
38.87606
38.85699
38.82772
38.92384
38.91268
38.81871
38.89935
38.84117
38.86599
38.87122
38.91914
38.92369
38.84381
38.85923
38.91076
38.90527
38.91159
38.89917
38.90529
38.92049
38.89564
38.89204
38.88176
38.90675
38.81807
38.891
38.80317
38.87194
38.86038
38.7871
38.81199
38.76641
38.84973
38.7222
38.7272
38.72247
38.84501
38.85114
38.83671
38.82265
38.72549
38.7476
38.69895
38.73439
38.80393
38.72107
38.67813
38.68207
38.67899
38.88545
38.89453
38.91426
38.90062
38.92024
38.90941
38.93038
38.90907
38.88579
38.91864
38.88937
38.85819
38.86135
38.88644
38.84913
38.84993
38.90376
38.83339
38.82764
38.88429
38.88786
38.87741
38.91561
38.91715
38.84787
38.86756
38.90752
38.91058
38.82393
38.87871
38.91895