/*--------------------------------*- C++ -*----------------------------------*\
| =========                 |                                                 |
| \\      /  F ield         | OpenFOAM: The Open Source CFD Toolbox           |
|  \\    /   O peration     | Version:  5.x                                   |
|   \\  /    A nd           | Web:      www.OpenFOAM.org                      |
|    \\/     M anipulation  |                                                 |
\*---------------------------------------------------------------------------*/
FoamFile
{
    version     2.0;
    format      ascii;
    class       volScalarField;
    location    "10/tumor";
    object      T;
}
// * * * * * * * * * * * * * * * * * * * * * * * * * * * * * * * * * * * * * //

dimensions      [0 0 0 1 0 0 0];

internalField   nonuniform List<scalar> 
636
(
38.87275
38.85644
39.11337
39.09523
38.77976
38.75677
38.79325
39.64733
39.1888
38.74778
39.71145
40.12832
39.95341
39.21332
39.78057
40.20282
40.05694
39.36104
39.1887
39.83947
39.71552
39.14788
38.61503
39.14473
39.10692
38.54357
38.89472
38.87877
39.64801
40.03919
39.87353
39.16942
38.8728
40.12915
40.54248
40.38431
39.7205
38.78408
39.11337
40.20337
40.62361
40.4717
39.90361
39.02057
38.77975
39.8396
40.29064
40.14138
39.65317
38.6448
39.1447
39.59974
39.42468
39.01821
38.91911
38.82232
38.47508
38.87869
38.86829
39.18868
39.8729
39.73703
39.13684
38.85639
39.95294
40.38397
40.23495
39.69228
38.76236
39.09508
40.0563
40.47144
40.31784
39.8788
39.00764
38.75648
39.71444
40.14122
39.98311
39.61979
38.67506
39.10643
39.42451
39.26707
38.97506
38.82222
38.74147
38.47501
38.41787
38.74766
39.16922
39.13686
38.69308
39.21321
39.72035
39.69261
39.13368
39.36079
39.90339
39.87877
39.29687
39.146
39.65281
39.61951
39.05886
38.5429
39.01791
38.97484
38.41896
38.784
38.76243
39.02047
39.00762
38.64467
38.67503
38.86419
38.85533
38.92002
39.07487
39.13967
38.84146
39.07705
38.85897
38.83853
38.85024
39.09278
38.97199
39.24236
38.93612
39.04865
39.11027
39.30826
39.367
39.45056
39.51962
39.0358
38.82336
39.29661
39.12619
39.41592
39.25729
38.80081
38.91374
38.9047
38.79599
39.0338
39.29639
38.93927
39.21306
39.16139
38.99842
39.05287
39.51167
39.57164
39.41598
39.48951
38.88754
38.97674
38.76099
39.4807
39.31533
39.37573
39.22971
38.95802
38.88927
38.76616
39.02714
38.74892
38.84891
39.23648
39.27822
39.01478
39.07434
39.2007
39.04495
38.99931
38.84413
38.74231
38.54577
38.69947
38.77599
38.71409
38.5535
38.86452
38.87567
38.94857
39.07911
39.16481
38.85601
39.08103
38.85201
38.86426
38.9815
38.99029
39.30782
38.98169
39.29143
39.30824
39.53086
38.95399
39.47843
39.34848
39.448
39.32881
39.72129
39.61659
38.92731
38.92373
39.26236
38.79741
38.85023
38.97195
39.09281
38.83852
39.24236
38.76917
39.32803
38.88848
39.47347
39.03779
39.62382
39.20475
38.74952
39.03371
38.93915
38.90468
39.29635
38.79598
39.21302
38.93706
39.31389
38.84888
39.6727
39.24903
39.61347
39.14798
38.81496
38.68509
38.76614
39.02725
38.74903
39.45307
38.84503
39.25157
39.45399
39.69745
39.25226
39.53585
38.71038
38.91287
38.50268
39.42989
38.97014
39.17827
38.73761
38.8687
38.55001
38.86889
39.19484
38.55005
38.8156
39.18669
38.73903
38.78227
39.40191
39.43511
39.03302
39.0663
38.92786
38.70662
38.52074
39.34
39.16716
38.98528
38.79694
38.83596
38.46681
38.46998
38.52354
38.68006
38.71925
38.52196
38.54698
38.63931
38.46135
38.46396
38.87583
39.0793
38.94873
39.16499
38.97226
39.25841
39.31896
38.97226
39.11212
39.31897
39.41621
39.23787
39.10603
38.9557
39.299
39.17612
38.8336
38.90002
38.85543
39.07498
38.92011
39.13978
38.78823
39.43796
39.02006
39.24939
38.85299
39.52039
39.09497
39.30832
39.04867
39.45063
38.93615
39.36705
39.11028
39.51966
39.23906
39.85685
39.38486
39.78402
39.30485
39.91915
39.47152
38.96348
38.84772
39.0262
39.51169
38.99841
39.41596
39.16136
39.57162
39.0528
39.48939
38.88827
39.07222
38.95035
39.23644
39.01474
38.8488
39.27798
39.07413
39.15627
39.40524
38.91523
39.70454
39.20811
39.45767
38.9712
38.72683
38.69944
38.77585
39.40187
38.739
39.03298
39.18655
39.435
38.78215
39.06621
38.60173
38.65097
39.0586
38.64071
38.69097
38.68004
38.52195
38.71918
38.54692
38.9598
38.71585
38.7402
38.95977
39.0111
38.74018
38.79324
38.64219
38.62686
38.45696
38.87986
38.69255
38.68881
38.50833
38.54939
38.54936
38.65586
38.52477
38.85596
39.08093
38.85187
38.95563
39.23772
39.29886
39.10583
39.17595
39.212
39.07409
39.07408
38.87351
38.81205
38.84141
39.07696
38.85886
39.44777
39.47825
39.72088
38.95381
39.32848
39.34819
39.61615
38.76838
39.40853
39.00104
38.90408
39.23228
38.76385
39.29648
39.03572
39.41573
39.12605
38.82332
39.25711
39.23251
39.83222
39.37445
39.47728
39.02014
39.64597
39.19514
38.95011
38.72337
39.48038
38.97654
39.37516
38.88747
39.31494
38.76112
39.22856
39.43835
39.81319
39.35474
39.68576
39.20657
39.61907
39.12503
38.8894
38.76985
38.67499
39.19968
38.99851
39.03847
38.83923
39.14014
39.36982
38.90116
39.42963
38.94368
39.16123
38.69819
38.50888
38.71367
38.55221
39.33954
38.70635
38.98502
38.92713
39.16662
38.52038
38.79664
38.57332
38.60335
38.78479
38.3993
38.41468
38.63915
38.46383
38.46116
38.87978
38.62677
38.68875
38.64207
38.69245
38.45684
38.50824
38.58178
38.56367
38.40247
38.58176
38.39852
38.40245
38.52472
38.83346
38.89991
38.81205
38.92356
38.92718
39.26215
38.79731
39.2492
39.43772
39.52011
38.78811
38.85289
39.01992
39.09484
38.90443
39.40846
39.23334
38.7684
39.00105
38.76403
38.85292
38.80076
38.91369
39.47329
39.32789
39.62359
38.76913
39.03768
38.88841
39.20463
39.7839
39.85668
39.91903
39.23894
39.30477
39.38473
39.47142
39.4792
39.83237
39.64673
39.23261
39.02044
39.37449
39.19522
38.71577
39.30192
38.86419
38.71567
38.86401
38.95798
38.88924
39.67239
39.31332
39.61301
38.93698
39.24888
38.8488
39.14778
39.68603
39.81307
39.61934
39.43831
39.2066
39.35469
39.12508
38.86004
39.21934
38.78311
38.85997
38.78306
38.74457
38.54357
39.42908
38.91014
39.17735
38.71026
38.96985
38.50221
38.73723
39.70429
39.40487
39.45739
39.15605
39.20793
38.91498
38.971
39.43001
39.36936
39.16181
39.14004
38.94375
38.90098
38.69828
38.61465
38.79862
38.39456
38.61462
38.39455
38.83546
38.4697
38.46651
39.05836
38.65076
38.69081
38.60152
38.64054
38.78488
38.60325
38.4147
38.57319
38.39932
38.74946
38.84768
38.96341
39.02615
38.95014
38.72343
38.81489
38.68502
39.07216
38.88816
38.95027
38.76986
38.88937
38.67499
38.72673
38.50889
39.447
39.83809
39.33645
39.9652
39.51997
39.89745
39.42817
39.96503
39.83782
39.89726
39.44685
39.51985
39.33627
39.42803
)
;

boundaryField
{
    tumor_to_gland
    {
        type            compressible::turbulentTemperatureCoupledBaffleMixed;
        refValue        nonuniform List<scalar> 
1125
(
38.55121
38.55121
38.55121
38.55121
38.55121
38.55121
38.41518
38.41518
38.41518
38.55674
38.55674
38.55674
38.55674
38.55461
38.55461
38.26799
38.26799
38.26799
38.53524
38.53524
38.53524
38.53524
38.41782
38.41782
38.41782
38.41782
38.61846
38.61846
38.61846
38.61846
38.51955
38.51955
38.51955
38.54684
38.54684
38.54684
38.54684
38.54684
38.55674
38.55674
38.55674
38.55674
38.55459
38.55459
38.26801
38.26801
38.26801
38.32398
38.32398
38.32398
38.32398
38.61855
38.61855
38.61855
38.61855
38.55127
38.55127
38.55127
38.55127
38.55127
38.55127
38.27913
38.27913
38.27913
38.27913
38.23658
38.23658
38.5352
38.5352
38.5352
38.5352
38.2057
38.2057
38.2057
38.2057
38.07515
38.07515
38.07515
38.07515
38.07515
38.07515
37.89927
37.89927
37.89927
37.89927
38.51949
38.51949
38.51949
38.68139
38.68139
38.68139
38.68139
38.41516
38.41516
38.41516
38.14141
38.14141
38.14141
38.08762
38.08762
38.4179
38.4179
38.4179
38.4179
38.04358
38.04358
38.04358
38.04358
37.89922
37.89922
37.89922
37.89922
38.54675
38.54675
38.54675
38.54675
38.54675
38.41565
38.41565
38.41565
38.41565
38.3679
38.3679
38.04652
38.04652
38.20558
38.20558
38.20558
38.20558
38.04355
38.04355
38.04355
38.04355
38.2791
38.2791
38.2791
38.2791
38.14142
38.14142
38.14142
38.23653
38.23653
38.08761
38.08761
38.30199
38.30199
38.29183
38.29183
38.31173
38.31173
38.31173
38.34855
38.34855
38.34855
38.34855
38.40417
38.40417
38.40417
38.40417
38.39206
38.39206
38.39206
38.39206
38.44571
38.44571
38.44571
38.44571
38.43188
38.43188
38.43188
38.43188
38.27846
38.27846
38.27846
38.30919
38.30919
38.30919
38.30919
38.30379
38.30379
38.1979
38.1979
38.1979
38.39379
38.39379
38.37768
38.37768
38.27628
38.27628
38.25841
38.25841
38.25799
38.25799
38.15008
38.15008
38.15008
38.53982
38.53982
38.53982
38.5977
38.5977
38.5977
38.5977
38.58635
38.58635
38.58635
38.58635
38.52023
38.52023
38.52023
38.43423
38.43423
38.43423
38.42078
38.42078
38.42078
38.65806
38.65806
38.65806
38.65806
38.61027
38.61027
38.61027
38.61027
38.54512
38.54512
38.54512
38.54512
38.54512
38.54512
38.64512
38.64512
38.64512
38.64512
38.64512
38.37475
38.37475
38.37475
38.57366
38.57366
38.57366
38.57366
38.57366
38.34238
38.34238
38.6339
38.6339
38.6339
38.6339
38.34237
38.34237
38.5969
38.5969
38.5969
38.5969
38.50179
38.50179
38.50179
38.50179
38.53688
38.53688
38.53688
38.53688
38.23948
38.23948
38.23948
38.55422
38.55422
38.55422
38.55422
38.20942
38.20942
38.30745
38.30743
38.52945
38.52945
38.52945
38.52945
38.47214
38.47214
38.47214
38.47818
38.47818
38.47818
38.37162
38.37162
38.37162
38.53291
38.53291
38.53291
38.53291
38.37548
38.37548
38.46599
38.46599
38.46599
38.46599
38.21433
38.21433
38.21433
38.40973
38.40973
38.40973
38.40973
38.40973
38.51304
38.51304
38.51304
38.51304
38.28123
38.28123
38.25932
38.25932
38.1568
38.14714
38.14714
38.27703
38.27703
38.27703
38.27703
38.3459
38.3459
38.3459
38.3459
38.32143
38.32143
38.32143
38.32143
38.35367
38.35367
38.35367
38.35367
38.44209
38.44209
38.44209
38.4327
38.4327
38.4327
38.33533
38.33533
38.33533
38.33533
38.5399
38.5399
38.5399
38.53879
38.53879
38.53879
38.6241
38.6241
38.6241
38.6241
38.53884
38.53884
38.53884
38.60921
38.60921
38.60921
38.60921
38.58834
38.58834
38.58834
38.58834
38.50968
38.50968
38.50968
38.47915
38.47915
38.47915
38.47915
38.6103
38.6103
38.6103
38.6103
38.4208
38.4208
38.4208
38.43427
38.43427
38.43427
38.6581
38.6581
38.6581
38.6581
38.32945
38.32945
38.32945
38.3529
38.3529
38.3529
38.57258
38.57258
38.57258
38.57258
38.57258
38.31175
38.31175
38.31175
38.34856
38.34856
38.34856
38.34856
38.59688
38.59688
38.59688
38.59688
38.45443
38.45443
38.45443
38.45443
38.48437
38.48437
38.48437
38.48437
38.18616
38.18616
38.18616
38.20991
38.20991
38.20991
38.20991
38.3038
38.3038
38.19792
38.19792
38.19792
38.47215
38.47215
38.47215
38.41703
38.41703
38.31773
38.31773
38.31773
38.14752
38.14752
38.02243
38.02243
38.40976
38.40976
38.40976
38.40976
38.40976
38.46601
38.46601
38.46601
38.46601
38.21434
38.21434
38.21434
38.09379
38.09379
38.09379
38.23618
38.23618
38.23618
38.30718
38.30718
38.30718
38.30718
38.30718
38.03272
38.03272
38.12029
38.12029
38.12029
38.12029
38.12029
38.12028
38.12028
38.12028
38.12028
38.12028
38.35325
38.35325
38.35325
38.35325
38.25228
38.25228
38.25228
38.25228
38.25228
38.25228
38.22656
38.22656
38.22656
38.22656
38.22656
38.22656
38.23615
38.23615
38.23615
38.23615
38.05111
38.05111
38.05111
38.05111
38.28193
38.28193
38.28193
38.28193
38.28193
38.02032
38.02032
38.02032
38.02032
37.97016
37.97016
37.97016
37.97016
37.97016
37.94119
37.94119
37.94119
37.94119
38.44209
38.44209
38.44209
38.43268
38.43268
38.43268
38.52602
38.52602
38.52602
38.52602
38.51282
38.51282
38.51282
38.51282
38.51279
38.51279
38.51279
38.51279
38.50325
38.50325
38.50325
38.50325
38.41493
38.41493
38.41493
38.41493
38.39829
38.39829
38.39829
38.39829
38.59778
38.59778
38.59778
38.59778
38.58636
38.58636
38.58636
38.58636
38.60922
38.60922
38.60922
38.60922
38.57868
38.57868
38.57868
38.57868
38.5649
38.5649
38.5649
38.5649
38.53705
38.53705
38.53705
38.53705
38.52193
38.52193
38.52193
38.52193
38.30202
38.30202
38.29185
38.29185
38.54513
38.54513
38.54513
38.54513
38.54513
38.54513
38.47167
38.47167
38.47167
38.47167
38.47167
38.47167
38.45892
38.45892
38.45892
38.45892
38.45892
38.45892
38.18439
38.18439
38.1701
38.1701
38.40419
38.40419
38.40419
38.40419
38.44573
38.44573
38.44573
38.44573
38.39209
38.39209
38.39209
38.39209
38.43192
38.43192
38.43192
38.43192
38.30673
38.30673
38.30673
38.30673
38.26339
38.26339
38.26339
38.26339
38.28914
38.28914
38.28914
38.28914
38.39381
38.39381
38.27631
38.27631
38.37774
38.37774
38.2585
38.2585
38.10073
38.10073
38.21642
38.21642
38.07983
38.07983
38.2812
38.2812
38.5129
38.5129
38.5129
38.5129
38.25926
38.25926
38.37268
38.37268
38.37268
38.37268
38.10478
38.10478
38.35175
38.35175
38.35175
38.35175
38.08016
38.08016
38.34585
38.34585
38.34585
38.34585
38.3213
38.3213
38.3213
38.3213
38.25224
38.25224
38.25224
38.25224
38.25224
38.25224
38.22646
38.22646
38.22646
38.22646
38.22646
38.22646
38.16418
38.16418
38.16418
38.16418
38.16418
38.16418
38.13324
38.13324
38.13324
38.13324
38.13324
38.13324
38.17857
38.17857
38.17857
38.17857
37.97014
37.97014
37.97014
37.97014
37.97014
37.94114
37.94114
37.94114
37.94114
38.04345
38.04345
38.04345
38.04345
38.04342
38.04342
38.04342
38.04342
38.01168
38.01168
38.01168
38.01168
37.87053
37.87053
37.87053
37.87053
38.33529
38.33529
38.33529
38.33529
38.41488
38.41488
38.41488
38.41488
38.39827
38.39827
38.39827
38.39827
38.52018
38.52018
38.52018
38.50958
38.50958
38.50958
38.58823
38.58823
38.58823
38.58823
38.57859
38.57859
38.57859
38.57859
38.56486
38.56486
38.56486
38.56486
38.42168
38.42168
38.42168
38.42168
38.42168
38.42168
38.42168
38.42168
38.53875
38.53875
38.53875
38.53875
38.44849
38.44849
38.44849
38.44849
38.64508
38.64508
38.64508
38.64508
38.64508
38.57358
38.57358
38.57358
38.57358
38.57358
38.37476
38.37476
38.37476
38.31687
38.31687
38.31687
38.53924
38.53924
38.53924
38.53924
38.53924
38.49002
38.49002
38.49002
38.49002
38.49002
38.26398
38.26398
38.26398
38.27852
38.27852
38.27852
38.30933
38.30933
38.30933
38.30933
38.50184
38.50184
38.50184
38.50184
38.53708
38.53708
38.53708
38.53708
38.37896
38.37896
38.37896
38.37896
38.38876
38.38876
38.38876
38.15764
38.15764
38.15764
38.15764
38.25827
38.25827
38.15051
38.15051
38.15051
38.47903
38.47903
38.47903
38.37585
38.37585
38.37585
38.31827
38.31827
38.18823
38.18823
37.95582
37.95582
38.14726
38.14726
38.16124
38.16124
38.27688
38.27688
38.27688
38.27688
38.23168
38.23168
38.23168
38.23168
37.95822
37.95822
37.9683
38.12727
38.12727
38.12727
38.05099
38.05099
38.05099
38.05099
38.2818
38.2818
38.2818
38.2818
38.2818
38.23591
38.23591
38.23591
38.23591
38.02021
38.02021
38.02021
38.02021
38.16408
38.16408
38.16408
38.16408
38.16408
38.16408
38.13318
38.13318
38.13318
38.13318
38.13318
38.13318
38.21601
38.21601
38.21601
38.21601
37.94466
37.94466
37.94466
37.94466
38.13723
38.13723
38.13723
37.94464
37.94464
37.94464
37.94464
37.87051
37.87051
37.87051
37.87051
38.47906
38.47906
38.47906
38.47906
38.53697
38.53697
38.53697
38.53697
38.52191
38.52191
38.52191
38.52191
38.44855
38.44855
38.44855
38.44855
38.35285
38.35285
38.35285
38.32942
38.32942
38.32942
38.57251
38.57251
38.57251
38.57251
38.57251
38.47161
38.47161
38.47161
38.47161
38.47161
38.47161
38.45891
38.45891
38.45891
38.45891
38.45891
38.45891
38.49006
38.49006
38.49006
38.49006
38.49006
38.31691
38.31691
38.31691
38.53933
38.53933
38.53933
38.53933
38.53933
38.26401
38.26401
38.26401
38.55421
38.55421
38.55421
38.55421
38.23973
38.23973
38.23973
38.20952
38.20952
38.4544
38.4544
38.4544
38.4544
38.48437
38.48437
38.48437
38.48437
38.37897
38.37897
38.37897
38.37897
38.38876
38.38876
38.38876
38.43528
38.43528
38.53324
38.53324
38.53324
38.53324
38.3768
38.3768
38.41705
38.41705
38.31774
38.31774
38.31774
38.31825
38.31825
38.18821
38.18821
38.22581
38.22581
38.23595
38.23595
38.23595
38.09376
38.09376
38.09376
38.30703
38.30703
38.30703
38.30703
38.30703
38.03262
38.03262
38.37256
38.37256
38.37256
38.37256
38.35168
38.35168
38.35168
38.35168
38.10467
38.10467
38.08008
38.08008
38.12727
38.12727
38.12727
38.23167
38.23167
38.23167
38.23167
37.96828
37.95819
37.95819
38.17849
38.17849
38.17849
38.17849
38.18437
38.18437
38.1701
38.1701
38.18613
38.18613
38.18613
38.20988
38.20988
38.20988
38.20988
38.26339
38.26339
38.26339
38.26339
38.3067
38.3067
38.3067
38.3067
38.28913
38.28913
38.28913
38.28913
38.15763
38.15763
38.15763
38.15763
38.14749
38.14749
38.02239
38.02239
38.21639
38.21639
38.10067
38.10067
38.07979
38.07979
37.9558
37.9558
38.5175
38.5175
38.5175
38.4434
38.4434
38.4434
38.3871
38.3871
38.3871
38.20125
38.20125
38.26205
38.26205
38.26205
38.26205
38.19185
38.19185
38.19185
38.19185
38.26205
38.26205
38.26205
38.26205
38.11658
38.11658
38.11658
38.11658
38.19164
38.19164
38.19164
38.19164
38.44338
38.44338
38.44338
38.34201
38.34201
38.34201
38.20212
38.20212
38.11643
38.11643
38.11643
38.11643
)
;
        refGradient     uniform 0;
        valueFraction   nonuniform List<scalar> 
1125
(
0.4221572
0.3325559
0.3929285
0.5022199
0.5387481
0.4434037
0.2963019
0.436099
0.2671888
0.2553111
0.3566239
0.5557758
0.431507
0.2755534
0.451751
0.3213549
0.2739288
0.469528
0.3929755
0.4679911
0.5926858
0.6324702
0.395794
0.6300081
0.5845408
0.4910267
0.3118533
0.3784205
0.5098446
0.551708
0.3168308
0.4654093
0.3105214
0.46296
0.560749
0.5664997
0.4528267
0.5596099
0.3566252
0.4315059
0.5557863
0.2553145
0.4516971
0.2755553
0.3213555
0.2739728
0.4696036
0.479228
0.3932906
0.393298
0.425124
0.3118537
0.5098518
0.3784235
0.5517081
0.4221587
0.3325569
0.502207
0.3929317
0.538753
0.4434053
0.2205436
0.3190206
0.2715986
0.3619843
0.3369681
0.3833142
0.3929745
0.5926833
0.4679889
0.6324684
0.4279275
0.4343975
0.4415438
0.4449722
0.2772022
0.1099248
0.1094426
0.1099248
0.1094426
0.1621047
0.1175968
0.1412005
0.159988
0.146693
0.3168277
0.4653949
0.3105164
0.5302997
0.6575671
0.6575688
0.4526496
0.2962995
0.4360853
0.2671841
0.2058337
0.2763471
0.1586854
0.3290953
0.2208077
0.3957926
0.5845363
0.6270455
0.4875762
0.407265
0.4083934
0.3008924
0.3068276
0.1175968
0.1412005
0.159988
0.146693
0.4629592
0.5664854
0.5607415
0.4528228
0.5596146
0.3741469
0.4634115
0.3740199
0.4633166
0.4910052
0.4909836
0.301125
0.3011697
0.4343948
0.4449615
0.4279314
0.4415396
0.40838
0.3068146
0.4072525
0.3008804
0.2205428
0.2715969
0.3190197
0.3619836
0.2058364
0.2763501
0.1586914
0.3369675
0.3833133
0.3290934
0.2208009
0.1589191
0.199915
0.1497424
0.2111124
0.1850569
0.1680525
0.2647361
0.3381187
0.1944226
0.3089375
0.2337509
0.2024931
0.2637586
0.310811
0.3589138
0.1979068
0.2778953
0.3691266
0.3047358
0.3885598
0.3575482
0.4015472
0.4132517
0.3798674
0.4107164
0.3562358
0.4223048
0.2004284
0.2747817
0.1571796
0.3480616
0.3234452
0.1932853
0.2228709
0.1730499
0.279582
0.156846
0.2011813
0.4108459
0.3280623
0.3699747
0.3805278
0.32265
0.1746089
0.2309759
0.17233
0.2447666
0.292881
0.1615266
0.1739483
0.1909145
0.4348863
0.2868702
0.3208494
0.4402256
0.2973093
0.3774233
0.3391306
0.4155218
0.3953527
0.287959
0.431603
0.3329413
0.3058975
0.3406443
0.4217832
0.2890191
0.2809211
0.4293363
0.308695
0.2775236
0.4519597
0.4122036
0.4918231
0.6534447
0.6581038
0.4322534
0.4708953
0.5510327
0.5460086
0.4039724
0.407575
0.5469187
0.3253799
0.4907907
0.4524142
0.4408014
0.6657219
0.4706486
0.5397723
0.6498464
0.3161462
0.4573507
0.2560159
0.4206009
0.4839262
0.554298
0.5565806
0.5252884
0.3335392
0.3282232
0.4557714
0.5733121
0.4557726
0.5733091
0.3335383
0.3282172
0.2950465
0.4801949
0.3654015
0.4904101
0.2882586
0.568989
0.3411868
0.4190587
0.3393115
0.4640167
0.3826337
0.463121
0.3290449
0.3243791
0.3863448
0.4846923
0.5877044
0.4424571
0.5622467
0.3193312
0.3149363
0.3013412
0.3013009
0.6147335
0.4443423
0.6147219
0.4443381
0.3324996
0.3212473
0.5188907
0.2933539
0.4965761
0.4503624
0.3466045
0.5808734
0.3867231
0.6680041
0.623762
0.6504292
0.5973379
0.4545004
0.4205749
0.3693871
0.5963872
0.3742721
0.5359704
0.2738453
0.2103775
0.4521214
0.4121423
0.5164024
0.5725272
0.5875683
0.4987741
0.392322
0.4843107
0.6405483
0.6155074
0.2283776
0.3012339
0.3144014
0.2839444
0.2112995
0.2792445
0.1815201
0.4306823
0.4205705
0.3883651
0.5276251
0.3653595
0.4358778
0.4099892
0.4329847
0.4481591
0.4185122
0.4472504
0.4097378
0.1720969
0.2988689
0.377955
0.377958
0.1944582
0.4355589
0.22901
0.1782382
0.4283108
0.2443902
0.1893479
0.3828272
0.2798165
0.3592978
0.4402688
0.3208505
0.2868723
0.3398811
0.2970786
0.4582078
0.3947996
0.4923431
0.5506551
0.550678
0.3398841
0.2970794
0.4582139
0.396053
0.560722
0.3041929
0.4986644
0.3782342
0.5070617
0.5544279
0.5275023
0.3475293
0.4631244
0.2756668
0.4503673
0.4733968
0.3432478
0.2706595
0.4322635
0.470927
0.5460551
0.5510765
0.3087165
0.2775248
0.4519727
0.2890318
0.2809232
0.4293363
0.4122072
0.4918367
0.6581098
0.6534436
0.3175189
0.285597
0.4466968
0.2992626
0.2943413
0.4262284
0.4060645
0.5200236
0.6669082
0.5592022
0.6604975
0.1850586
0.1680555
0.2647407
0.3381232
0.1944257
0.2337542
0.308942
0.4801949
0.2950497
0.4904025
0.3654048
0.3765658
0.4347452
0.559398
0.2479411
0.4792579
0.2931191
0.4796357
0.3536729
0.1934345
0.1779773
0.265696
0.3414448
0.2101087
0.2438372
0.3147785
0.1730511
0.2795838
0.1568458
0.2011823
0.410855
0.3325011
0.321216
0.5189197
0.4718311
0.265035
0.3266972
0.4164972
0.5640567
0.1825018
0.2860002
0.1633593
0.20626
0.4121498
0.5164419
0.5725781
0.5876119
0.4987786
0.3693869
0.5964086
0.3743095
0.5359769
0.2738718
0.4521493
0.2103789
0.2413809
0.3804672
0.3184767
0.4664965
0.4293592
0.343466
0.3695006
0.6384513
0.5106213
0.4317382
0.5869841
0.2073333
0.2725095
0.312672
0.4018729
0.2075593
0.3368774
0.2817752
0.3126676
0.2075535
0.4018655
0.3368694
0.2817684
0.3016011
0.2991848
0.2991848
0.4891518
0.482708
0.4952032
0.3877428
0.4122994
0.2438571
0.250933
0.5062787
0.4763241
0.4254997
0.2721882
0.3755677
0.223586
0.4921825
0.434698
0.3987435
0.4660281
0.4203351
0.3143317
0.3624767
0.2014502
0.4227066
0.2956257
0.3559554
0.5166021
0.3004401
0.3056849
0.2411505
0.3929843
0.3589544
0.1515791
0.1643752
0.234271
0.1133517
0.1140258
0.09402672
0.1782275
0.1361483
0.1209756
0.1944582
0.4355629
0.2290098
0.1782379
0.24439
0.4283032
0.2187276
0.2709058
0.2709057
0.3339626
0.1997586
0.2859671
0.3467749
0.2493027
0.1997584
0.285967
0.3467747
0.2493027
0.1681076
0.3582301
0.2623778
0.262378
0.2129443
0.4139937
0.2457028
0.4455203
0.1878733
0.249023
0.4434532
0.4101188
0.339131
0.4155249
0.2973101
0.3774266
0.4316037
0.395353
0.3329405
0.287958
0.3960536
0.5607194
0.3041918
0.4986544
0.5122219
0.5495024
0.2959661
0.3621359
0.5555272
0.3773123
0.5169123
0.278842
0.3704971
0.432773
0.290606
0.3634689
0.4476077
0.38187
0.3516209
0.2671006
0.1589205
0.1999164
0.1497435
0.2111135
0.4039724
0.4075743
0.5469167
0.452414
0.3253784
0.4907825
0.4186099
0.3603499
0.5082093
0.4083184
0.5414234
0.4338452
0.3943239
0.4226566
0.5495318
0.4432766
0.34687
0.4975212
0.1694391
0.2018381
0.1538602
0.2129903
0.2024947
0.3108162
0.2637601
0.3589173
0.3885647
0.3575531
0.4015504
0.4132551
0.1979081
0.2778965
0.3691287
0.3047347
0.3798647
0.4107183
0.4223062
0.3562351
0.395081
0.3715264
0.4070531
0.4198708
0.2084723
0.2855074
0.3721023
0.3106747
0.3923656
0.4159799
0.4285913
0.3647352
0.3280637
0.3699751
0.1746081
0.2309741
0.3805269
0.3226478
0.1723287
0.2447644
0.1830671
0.2478208
0.3926897
0.3601873
0.2309006
0.2584456
0.2283783
0.3012328
0.3923204
0.4843082
0.6405445
0.6155045
0.3143998
0.2839436
0.394383
0.6363971
0.6529053
0.4792686
0.3074525
0.3208968
0.4537508
0.6595687
0.4919709
0.6383645
0.3344234
0.299474
0.3653602
0.4358767
0.409988
0.432983
0.4481576
0.4472482
0.4185115
0.4097365
0.4827008
0.4951958
0.387736
0.2438523
0.4122927
0.2509281
0.5062773
0.425499
0.2721882
0.4763233
0.3755774
0.223586
0.4713785
0.4785684
0.4096089
0.279091
0.4302335
0.2808368
0.4898551
0.4415535
0.297637
0.4592046
0.3955077
0.2542671
0.4547706
0.4579586
0.419258
0.4208128
0.1515775
0.1643735
0.2342688
0.1133505
0.1140246
0.09402668
0.1782274
0.1209755
0.1361482
0.07144057
0.1200662
0.1856422
0.117702
0.07144054
0.1200661
0.1856421
0.117702
0.06503548
0.2075854
0.1368415
0.1368415
0.1164007
0.1723191
0.1597876
0.1254296
0.1893492
0.3828192
0.2798158
0.3592956
0.2129442
0.2457029
0.4139894
0.4455178
0.1878733
0.2490232
0.4434515
0.4101196
0.3406415
0.3058945
0.421762
0.3475227
0.4631161
0.2756655
0.3782331
0.5070553
0.554402
0.5274879
0.5122144
0.5494989
0.2959655
0.3621335
0.5555246
0.5169126
0.3773124
0.278844
0.4695705
0.3188875
0.2804155
0.4486397
0.4695718
0.3188875
0.2804193
0.4486788
0.3603355
0.5488973
0.5382609
0.5383292
0.3578641
0.2922176
0.4268413
0.4455161
0.4408033
0.6657112
0.4706426
0.6498421
0.5397723
0.4205997
0.4839195
0.5565575
0.525281
0.554292
0.3161405
0.4573435
0.2560077
0.3143008
0.4373348
0.2787263
0.4338611
0.6746851
0.5079647
0.6575433
0.5188933
0.4506654
0.5790654
0.4716932
0.5399627
0.5414278
0.3324836
0.4503705
0.2687756
0.2004295
0.2747798
0.1571796
0.3480565
0.3234436
0.1932853
0.2228683
0.5689828
0.2882587
0.3411779
0.419049
0.3393115
0.3826281
0.4640074
0.463116
0.5614576
0.2745455
0.3684391
0.4413033
0.3317674
0.3648093
0.4751532
0.3558055
0.3271346
0.2050447
0.2357558
0.2928768
0.1615226
0.1739472
0.1909113
0.4320536
0.2933449
0.4965716
0.4503567
0.3468192
0.5686865
0.3889991
0.351033
0.4708137
0.2651112
0.4124997
0.2173134
0.1444118
0.2792437
0.1815201
0.3887613
0.211993
0.4306812
0.3883651
0.5276243
0.4141614
0.4406789
0.6050781
0.5185296
0.3394091
0.2892752
0.1971776
0.2311974
0.4526132
0.389045
0.4340065
0.4203344
0.3143311
0.3624821
0.2014652
0.4227066
0.3559554
0.2956528
0.5166084
0.3004401
0.4921818
0.4346971
0.4660408
0.3987426
0.2411639
0.35896
0.3056845
0.3929761
0.409618
0.4302335
0.279091
0.2808368
0.4713711
0.4785531
0.4415471
0.2976316
0.3955016
0.2542622
0.4898355
0.459177
0.4717558
0.348967
0.2792334
0.348967
0.4045625
0.2872374
0.3799937
0.2414522
0.473085
0.4286746
0.4286641
0.3799902
0.2414494
0.4045448
0.2872196
0.1164007
0.1723191
0.1254296
0.1597876
0.3432467
0.4503544
0.4733954
0.2706563
0.3704965
0.432771
0.2906044
0.3634548
0.4476078
0.3516228
0.3818633
0.2670911
0.3578675
0.4269105
0.292214
0.4455144
0.2992604
0.294339
0.4262151
0.317516
0.2856012
0.4466888
0.4060615
0.520021
0.6604867
0.666903
0.5592018
0.4186093
0.3603488
0.4083091
0.5082006
0.5414054
0.4338437
0.3943252
0.4226526
0.5495221
0.3468648
0.4974935
0.4432768
0.4506791
0.5791336
0.4717219
0.5400568
0.5413484
0.3142998
0.4373342
0.2787268
0.4338665
0.6746876
0.5079702
0.6575512
0.518903
0.3325043
0.4504048
0.2686511
0.4846815
0.587694
0.4424605
0.5622453
0.3290376
0.3243758
0.3863414
0.3193306
0.3149313
0.376568
0.5593904
0.4347438
0.2479401
0.4792555
0.4796274
0.2931182
0.3536717
0.561476
0.3682994
0.4411969
0.2745574
0.4751404
0.3317762
0.3648028
0.4954829
0.4954657
0.668003
0.6237598
0.6504273
0.5973282
0.4492696
0.4205595
0.4718163
0.2650343
0.4164878
0.5640476
0.3266968
0.4708031
0.3510265
0.4125368
0.2651194
0.4380779
0.438087
0.4664957
0.4293584
0.3434651
0.2413802
0.3804656
0.3184762
0.3694998
0.6384441
0.5106202
0.5869778
0.4317378
0.2073328
0.2725082
0.3943826
0.6363924
0.6528885
0.4792664
0.4537525
0.6595552
0.6383045
0.4919706
0.3074519
0.3208895
0.334419
0.2994573
0.4526192
0.4340648
0.3890376
0.4406835
0.6050347
0.518538
0.3394146
0.2312634
0.2892654
0.1971683
0.4579503
0.4547694
0.4207969
0.4192432
0.1694385
0.2018366
0.1538616
0.2129905
0.1934332
0.1779769
0.2656942
0.341443
0.2101084
0.3147766
0.2438367
0.2084739
0.2855079
0.3721034
0.3106765
0.3950801
0.3715255
0.4070523
0.4198713
0.3923598
0.4159807
0.3647365
0.4285924
0.3558018
0.3271372
0.2050492
0.235749
0.1825015
0.2859988
0.1633587
0.2062597
0.3926903
0.3601826
0.1830669
0.2478191
0.230902
0.2584454
0.2173169
0.1444151
0.3223273
0.4565908
0.3223284
0.3411625
0.4664285
0.3035239
0.3785668
0.3785797
0.4199637
0.2948408
0.2535579
0.339715
0.5097014
0.283665
0.3723855
0.4095935
0.3078843
0.4013299
0.2817644
0.5097354
0.2836681
0.3397162
0.3723859
0.3167421
0.3216408
0.3911271
0.3968413
0.4095928
0.3078843
0.4013288
0.2817634
0.4664218
0.3411523
0.3035285
0.4707833
0.3124968
0.312374
0.2836543
0.2535528
0.3216404
0.3167417
0.396833
0.3911259
)
;
        value           nonuniform List<scalar> 
1125
(
38.71398
38.72416
38.74815
38.79105
38.8039
38.74599
38.68411
38.76565
38.71008
38.73897
38.71889
38.77682
38.77029
38.70561
38.74702
38.58331
38.59629
38.55809
38.66705
38.68796
38.71952
38.72376
38.60715
38.64016
38.64887
38.62198
38.76336
38.79493
38.82243
38.84379
38.71829
38.79666
38.71821
38.62981
38.69535
38.69123
38.66208
38.6287
38.71888
38.77027
38.77682
38.73897
38.74696
38.70561
38.5833
38.59636
38.55806
38.45958
38.44399
38.44402
38.42291
38.7635
38.82257
38.79507
38.84392
38.71404
38.72425
38.79114
38.74823
38.80398
38.74604
38.64571
38.7259
38.67215
38.73922
38.65417
38.66415
38.66703
38.71948
38.68789
38.72366
38.42209
38.44732
38.43952
38.4657
38.52185
38.48282
38.48304
38.4828
38.48302
38.54834
38.39239
38.35928
38.3975
38.42067
38.71825
38.79659
38.71809
38.74986
38.80154
38.80153
38.76213
38.68407
38.7656
38.71
38.61018
38.70806
38.60905
38.61235
38.52951
38.60703
38.6486
38.6396
38.62094
38.3485
38.3655
38.28113
38.28988
38.39232
38.35918
38.39742
38.42062
38.62971
38.69111
38.69524
38.66198
38.62864
38.58459
38.64145
38.58456
38.64139
38.56805
38.56803
38.27826
38.27824
38.44715
38.46556
38.42192
38.43937
38.36545
38.28988
38.34842
38.28114
38.64565
38.67212
38.72584
38.73918
38.61023
38.70808
38.6091
38.65409
38.66408
38.61233
38.52952
38.74852
38.78138
38.74039
38.77252
38.73645
38.71915
38.82849
38.83403
38.7134
38.8088
38.74797
38.74608
38.77008
38.82484
38.83611
38.73482
38.75969
38.82476
38.817
38.83478
38.81116
38.82406
38.84808
38.82491
38.81259
38.79971
38.83604
38.71097
38.80409
38.70953
38.80236
38.77876
38.697
38.73468
38.68357
38.78326
38.66541
38.64935
38.66845
38.78052
38.79147
38.77868
38.76504
38.66925
38.69618
38.64971
38.68428
38.74701
38.65594
38.6301
38.62139
38.64098
38.73273
38.73624
38.76053
38.74711
38.77072
38.75058
38.77577
38.76125
38.73658
38.76597
38.73584
38.71257
38.7116
38.74544
38.70823
38.70468
38.77594
38.6965
38.70109
38.7668
38.76082
38.74016
38.788
38.7928
38.68569
38.72103
38.75566
38.76179
38.70859
38.74091
38.79609