/*--------------------------------*- C++ -*----------------------------------*\
| =========                 |                                                 |
| \\      /  F ield         | OpenFOAM: The Open Source CFD Toolbox           |
|  \\    /   O peration     | Version:  5.x                                   |
|   \\  /    A nd           | Web:      www.OpenFOAM.org                      |
|    \\/     M anipulation  |                                                 |
\*---------------------------------------------------------------------------*/
FoamFile
{
    version     2.0;
    format      ascii;
    class       volScalarField;
    location    "10/tumor";
    object      T;
}
// * * * * * * * * * * * * * * * * * * * * * * * * * * * * * * * * * * * * * //

dimensions      [0 0 0 1 0 0 0];

internalField   nonuniform List<scalar> 
636
(
38.90158
38.88901
39.14978
39.13532
38.82503
38.80603
38.81542
39.67351
39.2154
38.77715
39.74167
40.16088
39.98922
39.25046
39.81805
40.24307
40.10111
39.4065
39.23156
39.88846
39.76915
39.20295
38.66673
39.19962
39.1668
38.60922
38.91593
38.9021
39.6742
40.06731
39.90455
39.20117
38.90163
40.16171
40.57737
40.42254
39.75949
38.82689
39.14978
40.24362
40.6664
40.51854
39.9517
39.07385
38.82502
39.88858
40.34257
40.19817
39.7118
38.71168
39.19959
39.66177
39.49262
39.08859
38.98537
38.89573
38.5527
38.90201
38.89394
39.21529
39.90392
39.77111
39.1715
38.88896
39.98875
40.42221
40.27682
39.73485
38.81013
39.13518
40.10048
40.51829
40.36897
39.93095
39.06552
38.80574
39.76807
40.19802
40.04501
39.68333
38.7466
39.16631
39.49245
39.34082
39.05123
38.89563
38.82122
38.55263
38.50176
38.77703
39.20098
39.17151
38.73111
39.25036
39.75934
39.73518
39.1809
39.40626
39.95148
39.93093
39.35419
39.2011
39.71145
39.68305
39.12853
38.60857
39.08831
39.05101
38.50224
38.82682
38.8102
39.07377
39.0655
38.71156
38.74658
38.88952
38.87901
38.94472
39.10102
39.16674
38.86738
39.10596
38.88984
38.87014
38.87835
39.1211
39.00229
39.27382
38.96728
39.0815
39.14471
39.33781
39.39784
39.48317
39.55374
39.07195
38.86147
39.32932
39.16041
39.45192
39.29504
38.83759
38.95354
38.93929
38.83425
39.06815
39.33164
38.97695
39.25163
39.19953
39.03893
39.09499
39.54852
39.60999
39.45653
39.53158
38.92935
39.02144
38.8073
39.52123
39.35748
39.42044
39.27591
39.00224
38.93796
38.80786
39.07032
38.7964
38.89585
39.28162
39.3251
39.06374
39.12501
39.25
39.09701
39.05263
38.90025
38.79645
38.60573
38.75399
38.83233
38.77334
38.616
38.8856
38.89746
38.97127
39.10142
39.18811
38.8802
39.10589
38.87782
38.8896
39.00441
39.01465
39.33345
39.00459
39.3153
39.33387
39.55691
38.98214
39.50786
39.37958
39.47541
39.3576
39.75142
39.64804
38.95957
38.954
39.29613
38.83348
38.87834
39.00226
39.12113
38.87014
39.27382
38.80867
39.3689
38.93156
39.5111
39.07737
39.66543
39.24917
38.79664
39.06807
38.97683
38.93927
39.3316
38.83425
39.25159
38.98541
39.36369
38.90166
39.71924
39.2982
39.66444
39.20234
38.86612
38.74193
38.80783
39.07043
38.79651
39.49736
38.89261
39.29956
39.49827
39.74274
39.30024
39.58473
38.76855
38.9729
38.56675
39.48642
39.02999
39.23991
38.80321
38.92156
38.60715
38.92175
39.24896
38.60719
38.87446
39.24358
38.79801
38.84354
39.45827
39.49323
39.09374
39.12939
38.99045
38.77103
38.58847
39.40144
39.23108
39.05148
38.86583
38.90321
38.53697
38.54218
38.58578
38.74426
38.78648
38.58744
38.61649
38.70963
38.53425
38.5366
38.89762
39.10161
38.97143
39.18829
38.99448
39.28141
39.34284
38.99447
39.13568
39.34285
39.44122
39.26333
39.13343
38.98018
39.32544
39.2045
38.86262
38.93008
38.87912
39.10113
38.94482
39.16685
38.8213
39.47275
39.05682
39.28237
38.88759
39.55649
39.13312
39.33787
39.08152
39.48324
38.9673
39.39789
39.14472
39.55378
39.28027
39.89988
39.43044
39.82449
39.34784
39.96368
39.51913
39.01162
38.89383
39.07675
39.54854
39.03893
39.45651
39.1995
39.60996
39.09492
39.53146
38.94793
39.1278
39.01211
39.28158
39.0637
38.89574
39.32486
39.12479
39.21872
39.46916
38.98307
39.76526
39.27309
39.52375
39.04165
38.79572
38.75396
38.83219
39.45822
38.79798
39.0937
39.24344
39.49313
38.84343
39.1293
38.67601
38.72668
39.13149
38.71776
38.76918
38.74424
38.58742
38.78641
38.61643
39.02941
38.78329
38.81251
39.02939
39.08227
38.81249
38.86725
38.71752
38.70229
38.53311
38.95538
38.77106
38.76683
38.58948
38.62466
38.62463
38.7315
38.60499
38.88016
39.10579
38.87768
38.9801
39.26318
39.3253
39.13324
39.20433
39.23996
39.10388
39.10387
38.9031
38.84349
38.86733
39.10587
38.88974
39.47518
39.50768
39.75101
38.98195
39.35727
39.37929
39.6476
38.80444
39.44666
39.04129
38.94083
39.27233
38.80695
39.3292
39.07187
39.45173
39.16027
38.86144
39.29485
39.27754
39.87904
39.42419
39.52185
39.06707
39.69488
39.2471
39.00267
38.77829
39.52092
39.02123
39.41986
38.92929
39.35709
38.80743
39.27477
39.49343
39.87038
39.4156
39.74023
39.26424
39.67871
39.18869
38.95371
38.83031
38.74205
39.24898
39.05182
39.09056
38.8953
39.20776
39.43903
38.97457
39.49583
39.01401
39.23356
38.77492
38.58314
38.77291
38.61472
39.40099
38.77076
39.05123
38.98973
39.23056
38.58812
38.86554
38.65359
38.68528
38.86399
38.48275
38.5
38.70947
38.53647
38.53407
38.95531
38.7022
38.76677
38.71741
38.77097
38.533
38.5894
38.66382
38.64562
38.48642
38.6638
38.48254
38.48641
38.60495
38.86249
38.92997
38.84349
38.95383
38.95943
39.29592
38.83338
39.28218
39.47251
39.55621
38.82118
38.88749
39.05669
39.13299
38.94118
39.44659
39.2734
38.80446
39.0413
38.80714
38.89458
38.83755
38.9535
39.51092
39.36876
39.66522
38.80863
39.07727
38.9315
39.24905
39.82438
39.89971
39.96356
39.28016
39.34776
39.43033
39.51904
39.52376
39.87919
39.69562
39.27764
39.06737
39.42423
39.24718
38.766
39.35369
38.91824
38.7659
38.91806
39.00221
38.93796
39.71893
39.36313
39.66399
38.98534
39.29805
38.9016
39.20215
39.74049
39.87026
39.67897
39.4934
39.26428
39.41555
39.18875
38.92004
39.28265
38.84966
38.91997
38.84961
38.79876
38.60377
39.48562
38.97025
39.23901
38.76844
39.02971
38.56631
38.80284
39.76502
39.4688
39.52348
39.21851
39.27291
38.98283
39.04145
39.4962
39.43858
39.23414
39.20766
39.01409
38.97439
38.77502
38.6884
38.87493
38.47527
38.68837
38.47526
38.90273
38.54192
38.53668
39.13125
38.72649
38.76901
38.67582
38.7176
38.86408
38.68519
38.50002
38.65346
38.48277
38.79659
38.89379
39.01155
39.07671
39.0027
38.77834
38.86605
38.74187
39.12774
38.94783
39.01204
38.83032
38.95368
38.74206
38.79562
38.58315
39.49782
39.89097
39.39308
40.01495
39.57273
39.95208
39.4866
40.01479
39.89071
39.9519
39.49768
39.5726
39.39291
39.48646
)
;

boundaryField
{
    tumor_to_gland
    {
        type            compressible::turbulentTemperatureCoupledBaffleMixed;
        refValue        nonuniform List<scalar> 
1125
(
38.57588
38.57588
38.57588
38.57588
38.57588
38.57588
38.44397
38.44397
38.44397
38.58593
38.58593
38.58593
38.58593
38.59156
38.59156
38.31532
38.31532
38.31532
38.58484
38.58484
38.58484
38.58484
38.4738
38.4738
38.4738
38.4738
38.63857
38.63857
38.63857
38.63857
38.54264
38.54264
38.54264
38.57919
38.57919
38.57919
38.57919
38.57919
38.58592
38.58592
38.58592
38.58592
38.59154
38.59154
38.31534
38.31534
38.31534
38.3808
38.3808
38.3808
38.3808
38.63866
38.63866
38.63866
38.63866
38.57594
38.57594
38.57594
38.57594
38.57594
38.57594
38.33139
38.33139
38.33139
38.33139
38.30208
38.30208
38.5848
38.5848
38.5848
38.5848
38.28843
38.28843
38.28843
38.28843
38.15641
38.15641
38.15641
38.15641
38.15641
38.15641
37.98959
37.98959
37.98959
37.98959
38.54258
38.54258
38.54258
38.70894
38.70894
38.70894
38.70894
38.44395
38.44395
38.44395
38.19947
38.19947
38.19947
38.15933
38.15933
38.47387
38.47387
38.47387
38.47387
38.13432
38.13432
38.13432
38.13432
37.98955
37.98955
37.98955
37.98955
38.57911
38.57911
38.57911
38.57911
38.57911
38.47127
38.47127
38.47127
38.47127
38.43749
38.43749
38.13129
38.13129
38.28831
38.28831
38.28831
38.28831
38.1343
38.1343
38.1343
38.1343
38.33136
38.33136
38.33136
38.33136
38.19948
38.19948
38.19948
38.30204
38.30204
38.15932
38.15932
38.3318
38.3318
38.32328
38.32328
38.34335
38.34335
38.34335
38.3838
38.3838
38.3838
38.3838
38.43667
38.43667
38.43667
38.43667
38.42647
38.42647
38.42647
38.42647
38.4823
38.4823
38.4823
38.4823
38.47051
38.47051
38.47051
38.47051
38.31534
38.31534
38.31534
38.35027
38.35027
38.35027
38.35027
38.34353
38.34353
38.24244
38.24244
38.24244
38.43511
38.43511
38.42122
38.42122
38.32249
38.32249
38.30693
38.30693
38.30406
38.30406
38.20118
38.20118
38.20118
38.56081
38.56081
38.56081
38.61926
38.61926
38.61926
38.61926
38.6093
38.6093
38.6093
38.6093
38.54504
38.54504
38.54504
38.45852
38.45852
38.45852
38.44728
38.44728
38.44728
38.68402
38.68402
38.68402
38.68402
38.63253
38.63253
38.63253
38.63253
38.57129
38.57129
38.57129
38.57129
38.57129
38.57129
38.67624
38.67624
38.67624
38.67624
38.67624
38.40935
38.40935
38.40935
38.60323
38.60323
38.60323
38.60323
38.60323
38.37587
38.37587
38.66174
38.66174
38.66174
38.66174
38.37586
38.37586
38.62944
38.62944
38.62944
38.62944
38.54002
38.54002
38.54002
38.54002
38.57929
38.57929
38.57929
38.57929
38.28575
38.28575
38.28575
38.59398
38.59398
38.59398
38.59398
38.26012
38.26012
38.345
38.34498
38.57022
38.57022
38.57022
38.57022
38.51347
38.51347
38.51347
38.52592
38.52592
38.52592
38.42526
38.42526
38.42526
38.58452
38.58452
38.58452
38.58452
38.43287
38.43287
38.51401
38.51401
38.51401
38.51401
38.26848
38.26848
38.26848
38.46117
38.46117
38.46117
38.46117
38.46117
38.56531
38.56531
38.56531
38.56531
38.33733
38.33733
38.31832
38.31832
38.2168
38.20968
38.20968
38.34181
38.34181
38.34181
38.34181
38.40715
38.40715
38.40715
38.40715
38.38578
38.38578
38.38578
38.38578
38.37216
38.37216
38.37216
38.37216
38.46128
38.46128
38.46128
38.45314
38.45314
38.45314
38.35737
38.35737
38.35737
38.35737
38.56089
38.56089
38.56089
38.55813
38.55813
38.55813
38.64434
38.64434
38.64434
38.64434
38.55819
38.55819
38.55819
38.63069
38.63069
38.63069
38.63069
38.61546
38.61546
38.61546
38.61546
38.53556
38.53556
38.53556
38.50966
38.50966
38.50966
38.50966
38.63256
38.63256
38.63256
38.63256
38.4473
38.4473
38.4473
38.45856
38.45856
38.45856
38.68407
38.68407
38.68407
38.68407
38.3704
38.3704
38.3704
38.39063
38.39063
38.39063
38.61254
38.61254
38.61254
38.61254
38.61254
38.34338
38.34338
38.34338
38.38381
38.38381
38.38381
38.38381
38.62943
38.62943
38.62943
38.62943
38.49924
38.49924
38.49924
38.49924
38.53411
38.53411
38.53411
38.53411
38.23737
38.23737
38.23737
38.26653
38.26653
38.26653
38.26653
38.34354
38.34354
38.24246
38.24246
38.24246
38.51348
38.51348
38.51348
38.47288
38.47288
38.37968
38.37968
38.37968
38.21089
38.21089
38.09297
38.09297
38.4612
38.4612
38.4612
38.4612
38.4612
38.51404
38.51404
38.51404
38.51404
38.26849
38.26849
38.26849
38.164
38.164
38.164
38.30594
38.30594
38.30594
38.37842
38.37842
38.37842
38.37842
38.37842
38.11185
38.11185
38.18758
38.18758
38.18758
38.18758
38.18758
38.18757
38.18757
38.18757
38.18757
38.18757
38.41737
38.41737
38.41737
38.41737
38.3207
38.3207
38.3207
38.3207
38.3207
38.3207
38.29842
38.29842
38.29842
38.29842
38.29842
38.29842
38.30766
38.30766
38.30766
38.30766
38.12828
38.12828
38.12828
38.12828
38.35617
38.35617
38.35617
38.35617
38.35617
38.10347
38.10347
38.10347
38.10347
38.05008
38.05008
38.05008
38.05008
38.05008
38.02477
38.02477
38.02477
38.02477
38.46129
38.46129
38.46129
38.45311
38.45311
38.45311
38.54587
38.54587
38.54587
38.54587
38.53394
38.53394
38.53394
38.53394
38.53391
38.53391
38.53391
38.53391
38.5257
38.5257
38.5257
38.5257
38.43764
38.43764
38.43764
38.43764
38.42221
38.42221
38.42221
38.42221
38.61935
38.61935
38.61935
38.61935
38.60932
38.60932
38.60932
38.60932
38.6307
38.6307
38.6307
38.6307
38.60563
38.60563
38.60563
38.60563
38.59327
38.59327
38.59327
38.59327
38.56841
38.56841
38.56841
38.56841
38.55493
38.55493
38.55493
38.55493
38.33183
38.33183
38.32331
38.32331
38.5713
38.5713
38.5713
38.5713
38.5713
38.5713
38.50966
38.50966
38.50966
38.50966
38.50966
38.50966
38.49882
38.49882
38.49882
38.49882
38.49882
38.49882
38.23267
38.23267
38.22053
38.22053
38.4367
38.4367
38.4367
38.4367
38.48233
38.48233
38.48233
38.48233
38.4265
38.4265
38.4265
38.4265
38.47055
38.47055
38.47055
38.47055
38.36513
38.36513
38.36513
38.36513
38.31814
38.31814
38.31814
38.31814
38.35017
38.35017
38.35017
38.35017
38.43514
38.43514
38.32252
38.32252
38.42129
38.42129
38.30702
38.30702
38.17342
38.17342
38.28478
38.28478
38.15555
38.15555
38.33731
38.33731
38.56517
38.56517
38.56517
38.56517
38.31827
38.31827
38.44634
38.44634
38.44634
38.44634
38.18661
38.18661
38.42863
38.42863
38.42863
38.42863
38.16551
38.16551
38.40711
38.40711
38.40711
38.40711
38.38565
38.38565
38.38565
38.38565
38.32066
38.32066
38.32066
38.32066
38.32066
38.32066
38.29833
38.29833
38.29833
38.29833
38.29833
38.29833
38.24845
38.24845
38.24845
38.24845
38.24845
38.24845
38.2213
38.2213
38.2213
38.2213
38.2213
38.2213
38.26495
38.26495
38.26495
38.26495
38.05007
38.05007
38.05007
38.05007
38.05007
38.02473
38.02473
38.02473
38.02473
38.12833
38.12833
38.12833
38.12833
38.1283
38.1283
38.1283
38.1283
38.1005
38.1005
38.1005
38.1005
37.96475
37.96475
37.96475
37.96475
38.35732
38.35732
38.35732
38.35732
38.4376
38.4376
38.4376
38.4376
38.42219
38.42219
38.42219
38.42219
38.54499
38.54499
38.54499
38.53547
38.53547
38.53547
38.61536
38.61536
38.61536
38.61536
38.60554
38.60554
38.60554
38.60554
38.59324
38.59324
38.59324
38.59324
38.45123
38.45123
38.45123
38.45123
38.45123
38.45123
38.45123
38.45123
38.57415
38.57415
38.57415
38.57415
38.48371
38.48371
38.48371
38.48371
38.6762
38.6762
38.6762
38.6762
38.6762
38.60314
38.60314
38.60314
38.60314
38.60314
38.40936
38.40936
38.40936
38.36038
38.36038
38.36038
38.58571
38.58571
38.58571
38.58571
38.58571
38.53126
38.53126
38.53126
38.53126
38.53126
38.31513
38.31513
38.31513
38.31541
38.31541
38.31541
38.3504
38.3504
38.3504
38.3504
38.54008
38.54008
38.54008
38.54008
38.57949
38.57949
38.57949
38.57949
38.43504
38.43504
38.43504
38.43504
38.45145
38.45145
38.45145
38.22191
38.22191
38.22191
38.22191
38.30434
38.30434
38.20161
38.20161
38.20161
38.52677
38.52677
38.52677
38.42947
38.42947
38.42947
38.38811
38.38811
38.26557
38.26557
38.03514
38.03514
38.20979
38.20979
38.22121
38.22121
38.34169
38.34169
38.34169
38.34169
38.31237
38.31237
38.31237
38.31237
38.04768
38.04768
38.05422
38.21367
38.21367
38.21367
38.12817
38.12817
38.12817
38.12817
38.35604
38.35604
38.35604
38.35604
38.35604
38.30744
38.30744
38.30744
38.30744
38.10336
38.10336
38.10336
38.10336
38.24836
38.24836
38.24836
38.24836
38.24836
38.24836
38.22125
38.22125
38.22125
38.22125
38.22125
38.22125
38.30071
38.30071
38.30071
38.30071
38.03886
38.03886
38.03886
38.03886
38.22571
38.22571
38.22571
38.03885
38.03885
38.03885
38.03885
37.96473
37.96473
37.96473
37.96473
38.50957
38.50957
38.50957
38.50957
38.56833
38.56833
38.56833
38.56833
38.55492
38.55492
38.55492
38.55492
38.48377
38.48377
38.48377
38.48377
38.39058
38.39058
38.39058
38.37037
38.37037
38.37037
38.61248
38.61248
38.61248
38.61248
38.61248
38.50961
38.50961
38.50961
38.50961
38.50961
38.50961
38.49882
38.49882
38.49882
38.49882
38.49882
38.49882
38.53131
38.53131
38.53131
38.53131
38.53131
38.36043
38.36043
38.36043
38.5858
38.5858
38.5858
38.5858
38.5858
38.31515
38.31515
38.31515
38.59398
38.59398
38.59398
38.59398
38.28601
38.28601
38.28601
38.26022
38.26022
38.49923
38.49923
38.49923
38.49923
38.53411
38.53411
38.53411
38.53411
38.43505
38.43505
38.43505
38.43505
38.45144
38.45144
38.45144
38.4977
38.4977
38.58486
38.58486
38.58486
38.58486
38.4342
38.4342
38.47291
38.47291
38.37971
38.37971
38.37971
38.3881
38.3881
38.26555
38.26555
38.30302
38.30302
38.30573
38.30573
38.30573
38.16398
38.16398
38.16398
38.37828
38.37828
38.37828
38.37828
38.37828
38.11175
38.11175
38.44623
38.44623
38.44623
38.44623
38.42856
38.42856
38.42856
38.42856
38.18651
38.18651
38.16543
38.16543
38.21366
38.21366
38.21366
38.31236
38.31236
38.31236
38.31236
38.0542
38.04766
38.04766
38.26488
38.26488
38.26488
38.26488
38.23265
38.23265
38.22053
38.22053
38.23735
38.23735
38.23735
38.26651
38.26651
38.26651
38.26651
38.31813
38.31813
38.31813
38.31813
38.36509
38.36509
38.36509
38.36509
38.35015
38.35015
38.35015
38.35015
38.22191
38.22191
38.22191
38.22191
38.21087
38.21087
38.09294
38.09294
38.28475
38.28475
38.17337
38.17337
38.15552
38.15552
38.03512
38.03512
38.54323
38.54323
38.54323
38.48034
38.48034
38.48034
38.43301
38.43301
38.43301
38.2648
38.2648
38.32151
38.32151
38.32151
38.32151
38.2601
38.2601
38.2601
38.2601
38.32151
38.32151
38.32151
38.32151
38.19654
38.19654
38.19654
38.19654
38.2599
38.2599
38.2599
38.2599
38.48033
38.48033
38.48033
38.39282
38.39282
38.39282
38.2657
38.2657
38.1964
38.1964
38.1964
38.1964
)
;
        refGradient     uniform 0;
        valueFraction   nonuniform List<scalar> 
1125
(
0.4221572
0.3325559
0.3929285
0.5022199
0.5387481
0.4434037
0.2963019
0.436099
0.2671888
0.2553111
0.3566239
0.5557758
0.431507
0.2755534
0.451751
0.3213549
0.2739288
0.469528
0.3929755
0.4679911
0.5926858
0.6324702
0.395794
0.6300081
0.5845408
0.4910267
0.3118533
0.3784205
0.5098446
0.551708
0.3168308
0.4654093
0.3105214
0.46296
0.560749
0.5664997
0.4528267
0.5596099
0.3566252
0.4315059
0.5557863
0.2553145
0.4516971
0.2755553
0.3213555
0.2739728
0.4696036
0.479228
0.3932906
0.393298
0.425124
0.3118537
0.5098518
0.3784235
0.5517081
0.4221587
0.3325569
0.502207
0.3929317
0.538753
0.4434053
0.2205436
0.3190206
0.2715986
0.3619843
0.3369681
0.3833142
0.3929745
0.5926833
0.4679889
0.6324684
0.4279275
0.4343975
0.4415438
0.4449722
0.2772022
0.1099248
0.1094426
0.1099248
0.1094426
0.1621047
0.1175968
0.1412005
0.159988
0.146693
0.3168277
0.4653949
0.3105164
0.5302997
0.6575671
0.6575688
0.4526496
0.2962995
0.4360853
0.2671841
0.2058337
0.2763471
0.1586854
0.3290953
0.2208077
0.3957926
0.5845363
0.6270455
0.4875762
0.407265
0.4083934
0.3008924
0.3068276
0.1175968
0.1412005
0.159988
0.146693
0.4629592
0.5664854
0.5607415
0.4528228
0.5596146
0.3741469
0.4634115
0.3740199
0.4633166
0.4910052
0.4909836
0.301125
0.3011697
0.4343948
0.4449615
0.4279314
0.4415396
0.40838
0.3068146
0.4072525
0.3008804
0.2205428
0.2715969
0.3190197
0.3619836
0.2058364
0.2763501
0.1586914
0.3369675
0.3833133
0.3290934
0.2208009
0.1589191
0.199915
0.1497424
0.2111124
0.1850569
0.1680525
0.2647361
0.3381187
0.1944226
0.3089375
0.2337509
0.2024931
0.2637586
0.310811
0.3589138
0.1979068
0.2778953
0.3691266
0.3047358
0.3885598
0.3575482
0.4015472
0.4132517
0.3798674
0.4107164
0.3562358
0.4223048
0.2004284
0.2747817
0.1571796
0.3480616
0.3234452
0.1932853
0.2228709
0.1730499
0.279582
0.156846
0.2011813
0.4108459
0.3280623
0.3699747
0.3805278
0.32265
0.1746089
0.2309759
0.17233
0.2447666
0.292881
0.1615266
0.1739483
0.1909145
0.4348863
0.2868702
0.3208494
0.4402256
0.2973093
0.3774233
0.3391306
0.4155218
0.3953527
0.287959
0.431603
0.3329413
0.3058975
0.3406443
0.4217832
0.2890191
0.2809211
0.4293363
0.308695
0.2775236
0.4519597
0.4122036
0.4918231
0.6534447
0.6581038
0.4322534
0.4708953
0.5510327
0.5460086
0.4039724
0.407575
0.5469187
0.3253799
0.4907907
0.4524142
0.4408014
0.6657219
0.4706486
0.5397723
0.6498464
0.3161462
0.4573507
0.2560159
0.4206009
0.4839262
0.554298
0.5565806
0.5252884
0.3335392
0.3282232
0.4557714
0.5733121
0.4557726
0.5733091
0.3335383
0.3282172
0.2950465
0.4801949
0.3654015
0.4904101
0.2882586
0.568989
0.3411868
0.4190587
0.3393115
0.4640167
0.3826337
0.463121
0.3290449
0.3243791
0.3863448
0.4846923
0.5877044
0.4424571
0.5622467
0.3193312
0.3149363
0.3013412
0.3013009
0.6147335
0.4443423
0.6147219
0.4443381
0.3324996
0.3212473
0.5188907
0.2933539
0.4965761
0.4503624
0.3466045
0.5808734
0.3867231
0.6680041
0.623762
0.6504292
0.5973379
0.4545004
0.4205749
0.3693871
0.5963872
0.3742721
0.5359704
0.2738453
0.2103775
0.4521214
0.4121423
0.5164024
0.5725272
0.5875683
0.4987741
0.392322
0.4843107
0.6405483
0.6155074
0.2283776
0.3012339
0.3144014
0.2839444
0.2112995
0.2792445
0.1815201
0.4306823
0.4205705
0.3883651
0.5276251
0.3653595
0.4358778
0.4099892
0.4329847
0.4481591
0.4185122
0.4472504
0.4097378
0.1720969
0.2988689
0.377955
0.377958
0.1944582
0.4355589
0.22901
0.1782382
0.4283108
0.2443902
0.1893479
0.3828272
0.2798165
0.3592978
0.4402688
0.3208505
0.2868723
0.3398811
0.2970786
0.4582078
0.3947996
0.4923431
0.5506551
0.550678
0.3398841
0.2970794
0.4582139
0.396053
0.560722
0.3041929
0.4986644
0.3782342
0.5070617
0.5544279
0.5275023
0.3475293
0.4631244
0.2756668
0.4503673
0.4733968
0.3432478
0.2706595
0.4322635
0.470927
0.5460551
0.5510765
0.3087165
0.2775248
0.4519727
0.2890318
0.2809232
0.4293363
0.4122072
0.4918367
0.6581098
0.6534436
0.3175189
0.285597
0.4466968
0.2992626
0.2943413
0.4262284
0.4060645
0.5200236
0.6669082
0.5592022
0.6604975
0.1850586
0.1680555
0.2647407
0.3381232
0.1944257
0.2337542
0.308942
0.4801949
0.2950497
0.4904025
0.3654048
0.3765658
0.4347452
0.559398
0.2479411
0.4792579
0.2931191
0.4796357
0.3536729
0.1934345
0.1779773
0.265696
0.3414448
0.2101087
0.2438372
0.3147785
0.1730511
0.2795838
0.1568458
0.2011823
0.410855
0.3325011
0.321216
0.5189197
0.4718311
0.265035
0.3266972
0.4164972
0.5640567
0.1825018
0.2860002
0.1633593
0.20626
0.4121498
0.5164419
0.5725781
0.5876119
0.4987786
0.3693869
0.5964086
0.3743095
0.5359769
0.2738718
0.4521493
0.2103789
0.2413809
0.3804672
0.3184767
0.4664965
0.4293592
0.343466
0.3695006
0.6384513
0.5106213
0.4317382
0.5869841
0.2073333
0.2725095
0.312672
0.4018729
0.2075593
0.3368774
0.2817752
0.3126676
0.2075535
0.4018655
0.3368694
0.2817684
0.3016011
0.2991848
0.2991848
0.4891518
0.482708
0.4952032
0.3877428
0.4122994
0.2438571
0.250933
0.5062787
0.4763241
0.4254997
0.2721882
0.3755677
0.223586
0.4921825
0.434698
0.3987435
0.4660281
0.4203351
0.3143317
0.3624767
0.2014502
0.4227066
0.2956257
0.3559554
0.5166021
0.3004401
0.3056849
0.2411505
0.3929843
0.3589544
0.1515791
0.1643752
0.234271
0.1133517
0.1140258
0.09402672
0.1782275
0.1361483
0.1209756
0.1944582
0.4355629
0.2290098
0.1782379
0.24439
0.4283032
0.2187276
0.2709058
0.2709057
0.3339626
0.1997586
0.2859671
0.3467749
0.2493027
0.1997584
0.285967
0.3467747
0.2493027
0.1681076
0.3582301
0.2623778
0.262378
0.2129443
0.4139937
0.2457028
0.4455203
0.1878733
0.249023
0.4434532
0.4101188
0.339131
0.4155249
0.2973101
0.3774266
0.4316037
0.395353
0.3329405
0.287958
0.3960536
0.5607194
0.3041918
0.4986544
0.5122219
0.5495024
0.2959661
0.3621359
0.5555272
0.3773123
0.5169123
0.278842
0.3704971
0.432773
0.290606
0.3634689
0.4476077
0.38187
0.3516209
0.2671006
0.1589205
0.1999164
0.1497435
0.2111135
0.4039724
0.4075743
0.5469167
0.452414
0.3253784
0.4907825
0.4186099
0.3603499
0.5082093
0.4083184
0.5414234
0.4338452
0.3943239
0.4226566
0.5495318
0.4432766
0.34687
0.4975212
0.1694391
0.2018381
0.1538602
0.2129903
0.2024947
0.3108162
0.2637601
0.3589173
0.3885647
0.3575531
0.4015504
0.4132551
0.1979081
0.2778965
0.3691287
0.3047347
0.3798647
0.4107183
0.4223062
0.3562351
0.395081
0.3715264
0.4070531
0.4198708
0.2084723
0.2855074
0.3721023
0.3106747
0.3923656
0.4159799
0.4285913
0.3647352
0.3280637
0.3699751
0.1746081
0.2309741
0.3805269
0.3226478
0.1723287
0.2447644
0.1830671
0.2478208
0.3926897
0.3601873
0.2309006
0.2584456
0.2283783
0.3012328
0.3923204
0.4843082
0.6405445
0.6155045
0.3143998
0.2839436
0.394383
0.6363971
0.6529053
0.4792686
0.3074525
0.3208968
0.4537508
0.6595687
0.4919709
0.6383645
0.3344234
0.299474
0.3653602
0.4358767
0.409988
0.432983
0.4481576
0.4472482
0.4185115
0.4097365
0.4827008
0.4951958
0.387736
0.2438523
0.4122927
0.2509281
0.5062773
0.425499
0.2721882
0.4763233
0.3755774
0.223586
0.4713785
0.4785684
0.4096089
0.279091
0.4302335
0.2808368
0.4898551
0.4415535
0.297637
0.4592046
0.3955077
0.2542671
0.4547706
0.4579586
0.419258
0.4208128
0.1515775
0.1643735
0.2342688
0.1133505
0.1140246
0.09402668
0.1782274
0.1209755
0.1361482
0.07144057
0.1200662
0.1856422
0.117702
0.07144054
0.1200661
0.1856421
0.117702
0.06503548
0.2075854
0.1368415
0.1368415
0.1164007
0.1723191
0.1597876
0.1254296
0.1893492
0.3828192
0.2798158
0.3592956
0.2129442
0.2457029
0.4139894
0.4455178
0.1878733
0.2490232
0.4434515
0.4101196
0.3406415
0.3058945
0.421762
0.3475227
0.4631161
0.2756655
0.3782331
0.5070553
0.554402
0.5274879
0.5122144
0.5494989
0.2959655
0.3621335
0.5555246
0.5169126
0.3773124
0.278844
0.4695705
0.3188875
0.2804155
0.4486397
0.4695718
0.3188875
0.2804193
0.4486788
0.3603355
0.5488973
0.5382609
0.5383292
0.3578641
0.2922176
0.4268413
0.4455161
0.4408033
0.6657112
0.4706426
0.6498421
0.5397723
0.4205997
0.4839195
0.5565575
0.525281
0.554292
0.3161405
0.4573435
0.2560077
0.3143008
0.4373348
0.2787263
0.4338611
0.6746851
0.5079647
0.6575433
0.5188933
0.4506654
0.5790654
0.4716932
0.5399627
0.5414278
0.3324836
0.4503705
0.2687756
0.2004295
0.2747798
0.1571796
0.3480565
0.3234436
0.1932853
0.2228683
0.5689828
0.2882587
0.3411779
0.419049
0.3393115
0.3826281
0.4640074
0.463116
0.5614576
0.2745455
0.3684391
0.4413033
0.3317674
0.3648093
0.4751532
0.3558055
0.3271346
0.2050447
0.2357558
0.2928768
0.1615226
0.1739472
0.1909113
0.4320536
0.2933449
0.4965716
0.4503567
0.3468192
0.5686865
0.3889991
0.351033
0.4708137
0.2651112
0.4124997
0.2173134
0.1444118
0.2792437
0.1815201
0.3887613
0.211993
0.4306812
0.3883651
0.5276243
0.4141614
0.4406789
0.6050781
0.5185296
0.3394091
0.2892752
0.1971776
0.2311974
0.4526132
0.389045
0.4340065
0.4203344
0.3143311
0.3624821
0.2014652
0.4227066
0.3559554
0.2956528
0.5166084
0.3004401
0.4921818
0.4346971
0.4660408
0.3987426
0.2411639
0.35896
0.3056845
0.3929761
0.409618
0.4302335
0.279091
0.2808368
0.4713711
0.4785531
0.4415471
0.2976316
0.3955016
0.2542622
0.4898355
0.459177
0.4717558
0.348967
0.2792334
0.348967
0.4045625
0.2872374
0.3799937
0.2414522
0.473085
0.4286746
0.4286641
0.3799902
0.2414494
0.4045448
0.2872196
0.1164007
0.1723191
0.1254296
0.1597876
0.3432467
0.4503544
0.4733954
0.2706563
0.3704965
0.432771
0.2906044
0.3634548
0.4476078
0.3516228
0.3818633
0.2670911
0.3578675
0.4269105
0.292214
0.4455144
0.2992604
0.294339
0.4262151
0.317516
0.2856012
0.4466888
0.4060615
0.520021
0.6604867
0.666903
0.5592018
0.4186093
0.3603488
0.4083091
0.5082006
0.5414054
0.4338437
0.3943252
0.4226526
0.5495221
0.3468648
0.4974935
0.4432768
0.4506791
0.5791336
0.4717219
0.5400568
0.5413484
0.3142998
0.4373342
0.2787268
0.4338665
0.6746876
0.5079702
0.6575512
0.518903
0.3325043
0.4504048
0.2686511
0.4846815
0.587694
0.4424605
0.5622453
0.3290376
0.3243758
0.3863414
0.3193306
0.3149313
0.376568
0.5593904
0.4347438
0.2479401
0.4792555
0.4796274
0.2931182
0.3536717
0.561476
0.3682994
0.4411969
0.2745574
0.4751404
0.3317762
0.3648028
0.4954829
0.4954657
0.668003
0.6237598
0.6504273
0.5973282
0.4492696
0.4205595
0.4718163
0.2650343
0.4164878
0.5640476
0.3266968
0.4708031
0.3510265
0.4125368
0.2651194
0.4380779
0.438087
0.4664957
0.4293584
0.3434651
0.2413802
0.3804656
0.3184762
0.3694998
0.6384441
0.5106202
0.5869778
0.4317378
0.2073328
0.2725082
0.3943826
0.6363924
0.6528885
0.4792664
0.4537525
0.6595552
0.6383045
0.4919706
0.3074519
0.3208895
0.334419
0.2994573
0.4526192
0.4340648
0.3890376
0.4406835
0.6050347
0.518538
0.3394146
0.2312634
0.2892654
0.1971683
0.4579503
0.4547694
0.4207969
0.4192432
0.1694385
0.2018366
0.1538616
0.2129905
0.1934332
0.1779769
0.2656942
0.341443
0.2101084
0.3147766
0.2438367
0.2084739
0.2855079
0.3721034
0.3106765
0.3950801
0.3715255
0.4070523
0.4198713
0.3923598
0.4159807
0.3647365
0.4285924
0.3558018
0.3271372
0.2050492
0.235749
0.1825015
0.2859988
0.1633587
0.2062597
0.3926903
0.3601826
0.1830669
0.2478191
0.230902
0.2584454
0.2173169
0.1444151
0.3223273
0.4565908
0.3223284
0.3411625
0.4664285
0.3035239
0.3785668
0.3785797
0.4199637
0.2948408
0.2535579
0.339715
0.5097014
0.283665
0.3723855
0.4095935
0.3078843
0.4013299
0.2817644
0.5097354
0.2836681
0.3397162
0.3723859
0.3167421
0.3216408
0.3911271
0.3968413
0.4095928
0.3078843
0.4013288
0.2817634
0.4664218
0.3411523
0.3035285
0.4707833
0.3124968
0.312374
0.2836543
0.2535528
0.3216404
0.3167417
0.396833
0.3911259
)
;
        value           nonuniform List<scalar> 
1125
(
38.73999
38.74695
38.77173
38.81555
38.82886
38.77331
38.70957
38.79351
38.73899
38.76851
38.7461
38.80476
38.79894
38.74189
38.7831
38.62503
38.64177
38.60403
38.7126
38.73489
38.76777
38.77277
38.65768
38.69378
38.70264
38.67665
38.78338
38.81551
38.84276
38.86456
38.74089
38.81979
38.74194
38.65951
38.7268
38.72186
38.69544
38.66335
38.74609
38.79892
38.80477
38.76851
38.78304
38.74189
38.62502
38.64184
38.604
38.51202
38.49884
38.49886
38.48053
38.78352
38.84289
38.81564
38.86469
38.74004
38.74704
38.81564
38.77181
38.82894
38.77336
38.68922
38.77421
38.71881
38.78942
38.71459
38.72626
38.71259
38.76773
38.73482
38.77268
38.49835
38.52415
38.51748
38.54402
38.59032
38.55546
38.55568
38.55545
38.55566
38.62188
38.46808
38.43363
38.47681
38.49916
38.74084
38.81972
38.74182
38.77575
38.82923
38.82922
38.78973
38.70954
38.79346
38.73892
38.65875
38.76098
38.66307
38.67788
38.5961
38.65755
38.70236
38.6932
38.67556
38.43131
38.44897
38.36455
38.37428
38.46801
38.43353
38.47674
38.49911
38.65941
38.72174
38.7267
38.69535
38.66328
38.63573
38.69525
38.6357
38.6952
38.63499
38.63497
38.35832
38.3583
38.52399
38.54388
38.49818
38.51733
38.44891
38.37429
38.43123
38.36457
38.68916
38.71878
38.77415
38.78939
38.65881
38.76101
38.66312
38.71451
38.7262
38.67786
38.59611
38.77596
38.81089
38.77125
38.80238
38.7643
38.74914
38.85964
38.86879
38.74414
38.8411
38.78111
38.77418
38.80032
38.85629
38.8687
38.76629
38.7905
38.85806
38.85135
38.8701
38.84415
38.8583
38.88445
38.86328
38.84769
38.83556
38.87326
38.74295
38.83912
38.74583
38.84157
38.81527
38.73414
38.77476
38.72024
38.82203
38.7086
38.68709
38.71074
38.81987
38.832
38.82006
38.80794
38.71276
38.74114
38.69694
38.72982
38.79062
38.7004
38.67778
38.66686
38.69123
38.75434
38.75653
38.78154
38.76888
38.7931
38.77109
38.79693
38.78416
38.76033
38.78774
38.75841
38.73687
38.73479
38.77109
38.73192
38.72722
38.80025
38.72089
38.72731
38.79325
38.78739
38.76485
38.81341
38.81891
38.70682
38.74393
38.77737
38.78413
38.73749
38.76513
38.82187
38.74003
38.82209
38.76804