/*--------------------------------*- C++ -*----------------------------------*\
| =========                 |                                                 |
| \\      /  F ield         | OpenFOAM: The Open Source CFD Toolbox           |
|  \\    /   O peration     | Version:  5.x                                   |
|   \\  /    A nd           | Web:      www.OpenFOAM.org                      |
|    \\/     M anipulation  |                                                 |
\*---------------------------------------------------------------------------*/
FoamFile
{
    version     2.0;
    format      ascii;
    class       volScalarField;
    location    "119/gland";
    object      T;
}
// * * * * * * * * * * * * * * * * * * * * * * * * * * * * * * * * * * * * * //

dimensions      [0 0 0 1 0 0 0];

internalField   nonuniform List<scalar> 
203172
(
36.69666
36.75631
36.75607
36.74395
36.21759
36.25112
36.2491
36.23857
35.93513
35.92921
35.9211
35.6972
35.68743
35.68977
35.49577
35.50893
36.7861
36.85448
36.88349
36.89489
36.89675
36.8898
36.87268
36.82346
36.70367
36.24338
36.38973
36.4783
36.5128
36.52037
36.49259
36.44853
36.33555
35.91799
36.03808
36.17018
36.20612
36.21514
36.18552
36.12582
36.01692
35.66821
35.78973
35.92213
35.95339
35.96332
35.94087
35.87377
35.76428
35.4966
35.59531
35.70218
35.74041
35.74603
35.73093
35.65059
35.56297
35.32185
35.42042
35.50461
35.5568
35.56175
35.53974
35.4412
35.36695
35.24744
35.30104
35.38481
35.3923
35.35899
35.2818
35.171
35.08564
35.15032
35.21646
35.22492
35.16817
35.12698
35.04831
34.93736
35.00581
35.03593
35.03834
35.02088
34.98534
34.8428
34.90353
34.90257
34.88483
34.82765
36.8373
36.88939
36.9151
36.92689
36.9316
36.93267
36.92947
36.92246
36.9055
36.8766
36.74148
36.37081
36.50405
36.58794
36.63847
36.65859
36.66323
36.6494
36.61905
36.55485
36.46519
36.26046
36.04879
36.20455
36.30901
36.38056
36.40776
36.41371
36.39643
36.35127
36.26798
36.1538
35.94971
35.79803
35.95774
36.07524
36.15433
36.18424
36.19003
36.17349
36.12009
36.02868
35.89695
35.71578
35.5908
35.74619
35.86861
35.95004
35.98597
35.99113
35.97397
35.91227
35.81603
35.64922
35.5124
35.41276
35.56096
35.68207
35.76444
35.80924
35.81603
35.79282
35.72622
35.61858
35.46585
35.3331
35.22575
35.39312
35.51047
35.59293
35.6442
35.65346
35.62316
35.55801
35.44991
35.30142
35.08062
35.2018
35.34359
35.436
35.48356
35.49305
35.4621
35.39917
35.29101
35.15108
34.94044
35.05202
35.19365
35.2873
35.33191
35.33907
35.31305
35.24629
35.13635
35.00354
34.90679
34.99462
35.10199
35.15409
35.16173
35.12869
35.06275
34.94721
34.8358
34.73194
34.79976
34.87108
34.87842
34.82486
34.76588
34.65292
34.54068
34.6093
34.61472
34.56822
34.51306
36.72551
36.86105
36.91129
36.93
36.94161
36.94844
36.95147
36.95209
36.95025
36.94563
36.9366
36.92294
36.89199
36.82987
36.22918
36.40784
36.57724
36.65636
36.7056
36.73664
36.7506
36.75339
36.74503
36.72366
36.68403
36.62542
36.50784
36.34456
36.0823
36.2943
36.40954
36.48313
36.53107
36.55271
36.55685
36.54435
36.51059
36.45079
36.36233
36.20435
35.97601
35.83473
36.05465
36.18828
36.27912
36.33818
36.36533
36.3702
36.35517
36.31251
36.23904
36.12976
35.95981
35.72003
35.63745
35.84699
35.98855
36.09092
36.15805
36.19081
36.19648
36.17856
36.12844
36.04484
35.92185
35.75406
35.52428
35.46352
35.65815
35.80875
35.91731
35.9901
36.02855
36.03552
36.01367
35.95791
35.86699
35.73815
35.56784
35.37754
35.29563
35.48117
35.64236
35.75559
35.83246
35.87481
35.88301
35.8578
35.79879
35.70323
35.56882
35.36575
35.21163
35.11533
35.32416
35.48281
35.60183
35.68318
35.72662
35.73516
35.70897
35.64779
35.54779
35.41023
35.21394
34.97801
35.16905
35.33265
35.45537
35.5406
35.585
35.59334
35.56712
35.50311
35.39928
35.25417
35.07075
34.83999
34.98933
35.15033
35.27289
35.36251
35.40938
35.41811
35.39015
35.32288
35.21703
35.08102
34.92815
34.70825
34.8505
34.98226
35.07629
35.12507
35.13506
35.10346
35.03524
34.928
34.79277
34.60549
34.69202
34.7879
34.84135
34.85714
34.81881
34.75106
34.64878
34.53366
34.42558
34.52566
34.55275
34.5547
34.53675
34.47249
36.8707
36.91521
36.93889
36.95087
36.95825
36.96285
36.96508
36.96551
36.96421
36.96088
36.95496
36.94585
36.92906
36.89921
36.79104
36.3978
36.59497
36.69385
36.74895
36.78353
36.8054
36.81608
36.81812
36.81192
36.796
36.7681
36.72549
36.65147
36.52338
36.28962
36.10043
36.32342
36.46465
36.55165
36.60812
36.64422
36.66199
36.66534
36.65511
36.6286
36.58286
36.51369
36.40217
36.22621
35.96947
35.85028
36.0935
36.25589
36.36437
36.43788
36.48526
36.50894
36.51335
36.49981
36.46464
36.40486
36.31574
36.18256
35.9861
35.72638
35.65092
35.89442
36.06573
36.18843
36.27479
36.33121
36.36018
36.36559
36.34894
36.30651
36.23571
36.1322
35.98682
35.78485
35.54208
35.48953
35.71485
35.88991
36.02383
36.11958
36.18308
36.21672
36.22315
36.20351
36.15517
36.07594
35.96202
35.80699
35.61129
35.39453
35.32934
35.54105
35.72568
35.86864
35.9716
36.04063
36.07787
36.08514
36.06307
36.01025
35.92455
35.80269
35.6371
35.44228
35.23574
35.13692
35.37823
35.57351
35.72098
35.82949
35.90307
35.94276
35.95056
35.92694
35.87066
35.77982
35.65259
35.48294
35.24971
34.99407
35.23279
35.42824
35.57996
35.69247
35.76979
35.81143
35.81955
35.79485
35.73562
35.64083
35.50939
35.33845
35.10713
34.85877
35.03812
35.24905
35.40442
35.51968
35.60058
35.64434
35.65289
35.62686
35.5646
35.4666
35.33271
35.15725
34.95496
34.77713
34.96129
35.11949
35.23718
35.32143
35.36731
35.37661
35.34871
35.28375
35.18314
35.04724
34.86357
34.68482
34.67232
34.83131
34.9528
35.04052
35.08905
35.0989
35.06963
35.00145
34.90061
34.74006
34.57828
34.43578
34.54661
34.67117
34.75607
34.80234
34.80798
34.78677
34.71707
34.6063
34.47403
34.39554
34.46483
34.49494
34.49814
34.483
34.43331
34.35117
36.8525
36.91649
36.94124
36.95582
36.96453
36.97009
36.97358
36.97537
36.97571
36.97467
36.97207
36.9676
36.96072
36.94948
36.93078
36.89525
36.75676
36.40663
36.59821
36.70593
36.77243
36.81376
36.84059
36.85762
36.86632
36.86799
36.86292
36.85022
36.82857
36.79551
36.74312
36.65911
36.52181
36.28889
36.09606
36.33447
36.48777
36.59061
36.65862
36.70407
36.73321
36.7482
36.75106
36.74233
36.72052
36.68363
36.62817
36.5444
36.41881
36.23069
35.98352
35.85971
36.1106
36.28923
36.41596
36.50452
36.56556
36.60512
36.62566
36.6296
36.61761
36.58784
36.538
36.46433
36.3581
36.20755
35.99635
35.74982
35.6678
35.91416
36.10642
36.24962
36.35413
36.42797
36.47635
36.50183
36.50673
36.49181
36.45515
36.39449
36.30619
36.18336
36.01719
35.79831
35.55555
35.48581
35.7335
35.93519
36.09128
36.20869
36.29286
36.34859
36.37836
36.38415
36.36659
36.3241
36.25456
36.15452
36.01829
35.84081
35.61514
35.37378
35.28967
35.55225
35.77211
35.94076
36.06842
36.16082
36.22256
36.25587
36.26242
36.24265
36.19537
36.11866
36.00937
35.86186
35.67048
35.40528
35.13555
35.39182
35.62099
35.79826
35.933
36.03176
36.09839
36.13451
36.14163
36.12015
36.06898
35.98659
35.87049
35.71561
35.51346
35.25432
35.01563
35.2511
35.48015
35.66163
35.80176
35.90542
35.97597
36.01436
36.02193
35.99909
35.94477
35.8579
35.73654
35.57684
35.37196
35.11588
35.05538
35.29878
35.48799
35.63458
35.74314
35.81769
35.85842
35.86647
35.8422
35.78462
35.6933
35.56638
35.39988
35.18684
34.93757
34.78859
35.00177
35.20228
35.35689
35.47097
35.55003
35.59339
35.60202
35.57608
35.51484
35.4186
35.2852
35.108
34.88487
34.67958
34.72267
34.92494
35.07652
35.19528
35.27827
35.32326
35.33192
35.30551
35.24133
35.14111
35.00437
34.83015
34.61945
34.45928
34.62944
34.7876
34.91439
34.99929
35.04249
35.04974
35.02627
34.96135
34.85561
34.72132
34.55691
34.34592
34.49682
34.62319
34.70775
34.74715
34.75288
34.73293
34.6643
34.54924
34.43982
34.32344
34.40454
34.42762
34.42704
34.41839
34.3723
34.28311
36.8087
36.91705
36.94287
36.95795
36.96804
36.97474
36.97922
36.98208
36.98358
36.98387
36.98299
36.98084
36.97721
36.97173
36.9635
36.95119
36.93227
36.89051
36.34423
36.60189
36.71265
36.7829
36.83089
36.86337
36.88531
36.89939
36.90677
36.9082
36.90386
36.89324
36.87543
36.84872
36.8092
36.75119
36.66507
36.51028
36.04002
36.33116
36.49684
36.60908
36.68814
36.74329
36.7812
36.80574
36.81866
36.82117
36.81356
36.79501
36.76409
36.71825
36.65209
36.55793
36.42308
36.21263
35.80939
36.09703
36.29864
36.44135
36.54471
36.61893
36.67093
36.70487
36.72286
36.72636
36.71575
36.69
36.64738
36.585
36.4972
36.37581
36.20722
35.95978
35.6007
35.88815
36.11469
36.28013
36.40291
36.49313
36.55729
36.59953
36.62208
36.62649
36.61316
36.58099
36.52816
36.45164
36.34609
36.20363
36.011
35.73025
35.41719
35.69581
35.94152
36.12512
36.26397
36.36765
36.44218
36.4916
36.51819
36.52341
36.50765
36.46986
36.40826
36.3198
36.19941
36.03978
35.8284
35.5483
35.2781
35.53484
35.77947
35.97691
36.12889
36.24356
36.3267
36.38222
36.41227
36.41819
36.40033
36.35775
36.28878
36.19049
36.05801
35.88448
35.66225
35.39015
35.12962
35.38573
35.63125
35.83668
35.99811
36.12127
36.2114
36.27202
36.30498
36.31149
36.29187
36.24526
36.1702
36.06412
35.9226
35.73975
35.51242
35.24634
35.23212
35.4885
35.70179
35.87053
36.00057
36.09641
36.16126
36.19664
36.20365
36.18256
36.1326
36.05253
35.94008
35.79141
35.60123
35.36186
35.08409
35.05606
35.3072
35.52834
35.70606
35.844
35.94602
36.01542
36.0534
36.06093
36.03827
35.9847
35.89926
35.77976
35.62258
35.42352
35.18033
34.92828
34.76374
35.01108
35.24041
35.43044
35.57819
35.68768
35.76263
35.80375
35.8119
35.78737
35.72939
35.63744
35.50942
35.34081
35.13047
34.87898
34.7341
34.96553
35.15663
35.30811
35.42278
35.50191
35.54494
35.55331
35.52792
35.4668
35.37002
35.23736
35.06524
34.85759
34.60647
34.47427
34.66409
34.8693
35.02967
35.14848
35.23042
35.27382
35.28188
35.25693
35.19401
35.09331
34.95632
34.77326
34.57204
34.38071
34.56226
34.74244
34.86161
34.94523
34.98843
34.99585
34.97205
34.90674
34.80383
34.66259
34.48362
34.28734
34.44471
34.56402
34.64869
34.68851
34.69293
34.67466
34.60476
34.49231
34.38288
34.26726
34.34307
34.37029
34.37242
34.36229
34.29877
34.22289
36.7568
36.90332
36.94173
36.95874
36.96969
36.97742
36.98288
36.98664
36.98909
36.99038
36.99064
36.98987
36.98802
36.98494
36.98039
36.97389
36.96471
36.95139
36.9276
36.85863
36.29343
36.55389
36.70634
36.78599
36.83889
36.87657
36.90332
36.92191
36.934
36.94043
36.94169
36.93789
36.9287
36.91351
36.89111
36.85931
36.81476
36.75099
36.64525
36.42966
36.00118
36.27135
36.48281
36.61242
36.70175
36.76625
36.81266
36.84521
36.86649
36.87784
36.88007
36.87335
36.85716
36.83047
36.79142
36.7366
36.66082
36.55438
36.39152
36.13073
35.77622
36.03854
36.27617
36.44361
36.56301
36.65056
36.71446
36.75975
36.78953
36.80548
36.80861
36.79916
36.77646
36.7392
36.6851
36.61015
36.50803
36.36746
36.16607
35.90128
35.83503
36.08825
36.28165
36.42505
36.53212
36.61134
36.66804
36.70552
36.72569
36.72966
36.71769
36.68904
36.64226
36.57484
36.4825
36.35861
36.19231
35.96815
35.67961
35.65328
35.9173
36.12721
36.2893
36.41276
36.50522
36.57193
36.61629
36.64025
36.64498
36.63073
36.59676
36.54155
36.4625
36.35532
36.21367
36.0288
35.79282
35.5009
35.45538
35.75883
35.98056
36.1569
36.29377
36.39742
36.47276
36.52312
36.55044
36.55584
36.53958
36.50092
36.43839
36.34941
36.22987
36.07408
35.87581
35.62628
35.33214
35.30992
35.60803
35.84058
36.02815
36.17577
36.28869
36.37135
36.4269
36.45713
36.46312
36.4451
36.40238
36.33358
36.23627
36.10663
35.9397
35.73039
35.46885
35.17919
35.16926
35.46182
35.70428
35.90183
36.0585
36.17925
36.26815
36.32813
36.36088
36.36737
36.34784
36.30163
36.22747
36.12309
35.98497
35.80853
35.58861
35.31859
35.04907
34.9944
35.28227
35.53059
35.73847
35.90527
36.03481
36.13064
36.19558
36.23112
36.23817
36.21696
36.16686
36.08674
35.97447
35.82678
35.63994
35.41065
35.12025
34.7273
34.96302
35.24375
35.46399
35.64325
35.78384
35.88848
35.95978
35.99889
36.00665
35.98331
35.9282
35.84047
35.71825
35.55858
35.35931
35.11676
34.85543
34.69695
34.96638
35.19161
35.37672
35.52464
35.63573
35.7118
35.75339
35.76158
35.73687
35.6781
35.58465
35.45548
35.28858
35.08532
34.81039
34.57017
34.43552
34.67362
34.90266
35.09665
35.25392
35.37038
35.45007
35.49329
35.50166
35.47622
35.41474
35.31679
35.18073
35.00365
34.79377
34.562
34.38761
34.59507
34.80345
34.97067
35.09075
35.17319
35.21787
35.22628
35.20037
35.13628
35.03508
34.89319
34.70521
34.50531
34.31253
34.49882
34.67252
34.79681
34.8808
34.92743
34.93535
34.90959
34.84214
34.7376
34.59529
34.41886
34.22178
34.36773
34.48926
34.56549
34.62381
34.63129
34.60384
34.53094
34.41906
34.29263
34.19166
34.2558
34.29707
34.30046
34.27444
34.22888
36.74326
36.88966
36.93578
36.95705
36.96979
36.97858
36.98496
36.9896
36.99287
36.99502
36.99617
36.99639
36.99571
36.99407
36.99139
36.98747
36.98202
36.97455
36.96409
36.94798
36.91876
36.82632
36.28869
36.50612
36.67958
36.77737
36.83905
36.88216
36.91363
36.93655
36.95277
36.96341
36.96913
36.97025
36.96686
36.95874
36.94541
36.92603
36.89911
36.86235
36.81128
36.73473
36.60808
36.37197
35.99044
36.17791
36.44074
36.59658
36.70116
36.77579
36.83072
36.87098
36.89961
36.91847
36.9286
36.9306
36.92458
36.91018
36.88661
36.85247
36.80534
36.7414
36.65363
36.52695
36.3334
36.06878
35.75908
35.95115
36.22543
36.4216
36.56131
36.6635
36.73956
36.79579
36.836
36.86259
36.87692
36.87975
36.87123
36.8509
36.81772
36.76988
36.70433
36.61622
36.49717
36.33197
36.09804
35.82625
35.74744
36.0341
36.25651
36.42282
36.54808
36.6427
36.7133
36.76413
36.79787
36.81611
36.81971
36.80886
36.78302
36.74099
36.6807
36.59874
36.48983
36.34566
36.15345
35.89461
35.60309
35.57713
35.86212
36.1013
36.28734
36.43142
36.54203
36.62537
36.68575
36.72599
36.74781
36.75212
36.73913
36.70826
36.65822
36.58681
36.49048
36.36404
36.20022
35.98914
35.72064
35.43991
35.42196
35.69774
35.95311
36.15522
36.31473
36.43892
36.53336
36.60219
36.64827
36.67331
36.67827
36.66334
36.62795
36.57077
36.48957
36.38087
36.2398
36.0601
35.83259
35.55574
35.29577
35.2476
35.5419
35.81074
36.02613
36.19848
36.33417
36.43818
36.51442
36.56566
36.59358
36.59912
36.58246
36.54304
36.47958
36.38987
36.27058
36.11725
35.92438
35.68345
35.36706
35.10336
35.39593
35.67338
35.89927
36.08251
36.22804
36.34035
36.42307
36.47886
36.50932
36.51537
36.49719
36.45422
36.38523
36.2881
36.1597
35.99592
35.79203
35.54138
35.22935
34.95875
35.22344
35.49987
35.73581
35.93075
36.0872
36.20885
36.29893
36.35991
36.39329
36.39992
36.37998
36.33295
36.25767
36.15216
36.01355
35.83835
35.62301
35.36477
35.08119
34.93143
35.2103
35.46149
35.67079
35.84076
35.97449
36.0743
36.14222
36.17949
36.1869
36.16463
36.11215
36.0285
35.91203
35.76046
35.57137
35.34096
35.0728
34.80597
34.65979
34.9241
35.18851
35.4062
35.58482
35.72755
35.83479
35.90806
35.94826
35.95623
35.93225
35.87561
35.78551
35.66073
35.49999
35.30293
35.0605
34.78451
34.63987
34.90726
35.12781
35.31476
35.46617
35.57956
35.65708
35.69959
35.70797
35.68268
35.62273
35.52747
35.39529
35.22545
35.02192
34.78126
34.51096
34.38565
34.60326
34.83508
35.03078
35.18963
35.30768
35.38864
35.43328
35.44202
35.41554
35.35263
35.25334
35.11546
34.93699
34.72545
34.50315
34.31579
34.52622
34.73573
34.8961
35.01804
35.10172
35.14898
35.15809
35.13021
35.06427
34.96148
34.82235
34.63793
34.43429
34.23882
34.4235
34.58209
34.70756
34.79295
34.84464
34.85467
34.82421
34.75512
34.65068
34.51722
34.34548
34.26088
34.36511
34.46101
34.50683
34.52157
34.49016
34.40297
34.32102
34.20358
34.13807
34.2002
34.20178
34.18496
36.7408
36.87943
36.92459
36.95236
36.96791
36.97828
36.98572
36.99124
36.99531
36.99822
37.00014
37.00118
37.00138
37.00076
36.99929
36.9969
36.99343
36.98868
36.98228
36.97356
36.96102
36.94106
36.90242
36.83348
36.28979
36.48325
36.63018
36.75492
36.82976
36.88057
36.91734
36.94467
36.96487
36.97932
36.98888
36.99403
36.99505
36.99198
36.98467
36.97275
36.95556
36.93201
36.90035
36.85737
36.79631
36.7022
36.55009
36.38825
35.99636
36.18816
36.36736
36.5597
36.68496
36.77276
36.83714
36.88528
36.92103
36.94667
36.96365
36.97282
36.97464
36.96918
36.95618
36.93501
36.90454
36.86296
36.80732
36.73245
36.6283
36.47516
36.26565
36.08748
35.76573
35.94927
36.14327
36.37533
36.53953
36.65912
36.74844
36.81584
36.86617
36.90242
36.9265
36.93952
36.94209
36.93434
36.9159
36.88592
36.84292
36.78452
36.70693
36.60384
36.4642
36.26975
36.02697
35.85238
35.57616
35.716
35.94644
36.20465
36.39726
36.54279
36.65383
36.7386
36.80235
36.84848
36.87921
36.89586
36.89916
36.88924
36.86567
36.82746
36.77286
36.69912
36.60203
36.47502
36.30782
36.0854
35.81498
35.6552
35.42987
35.549
35.77387
36.04564
36.25913
36.42563
36.55522
36.65537
36.73125
36.78644
36.82332
36.84335
36.84732
36.83538
36.80706
36.76126
36.6961
36.60862
36.49451
36.34759
36.15895
35.91822
35.64229
35.48179
35.39799
35.61001
35.89288
36.12443
36.30847
36.45389
36.56751
36.65423
36.71761
36.7601
36.78323
36.78781
36.77402
36.74136
36.68866
36.61398
36.51434
36.38554
36.22182
36.01511
35.75782
35.48545
35.33033
35.25043
35.45348
35.74704
35.9932
36.1917
36.3506
36.47594
36.57225
36.64298
36.69055
36.71649
36.72163
36.70616
36.66955
36.61065
36.52749
36.41716
36.27569
36.09788
35.87655
35.60445
35.30835
35.1776
35.08952
35.30753
35.61019
35.86546
36.07536
36.2457
36.38123
36.48602
36.5633
36.61542
36.6439
36.64955
36.63255
36.5924
36.52793
36.43725
36.31756
36.16517
35.97572
35.74377
35.46472
35.16752
34.95846
35.14323
35.43788
35.70158
35.92339
36.1063
36.25327
36.36773
36.45257
36.51
36.54144
36.54769
36.52891
36.48461
36.4137
36.31438
36.18407
36.01957
35.81751
35.57514
35.28823
35.02216
34.86288
35.15581
35.42596
35.66309
35.86193
36.02362
36.15096
36.2461
36.31085
36.3464
36.35347
36.33222
36.28219
36.20244
36.09145
35.94724
35.76737
35.54915
35.29451
34.99244
34.85265
35.14793
35.398
35.60794
35.78014
35.91736
36.02055
36.09107
36.12984
36.13755
36.11438
36.05983
35.97313
35.85309
35.69851
35.50806
35.27738
35.0138
34.7145
34.58139
34.85304
35.12255
35.34017
35.52091
35.66644
35.77615
35.8513
35.89272
35.90095
35.8762
35.81799
35.72571
35.59819
35.4349
35.23646
34.99598
34.71782
34.57196
34.83645
35.05795
35.24578
35.39779
35.5125
35.59146
35.63525
35.64396
35.61776
35.55638
35.4597
35.32654
35.15613
34.95147
34.71242
34.44087
34.31112
34.5295
34.76124
34.95455
35.11003
35.22843
35.31057
35.35691
35.36614
35.33835
35.27394
35.17374
35.03743
34.86228
34.65189
34.42815
34.23076
34.441
34.63934
34.79975
34.92128
35.00645
35.05601
35.06596
35.03614
34.96831
34.86536
34.72514
34.54788
34.35269
34.30893
34.47062
34.58752
34.67703
34.73119
34.74157
34.71041
34.63647
34.52898
34.38299
34.20044
34.15136
34.24878
34.3262
34.39871
34.40509
34.35548
34.294
34.21267
36.78798
36.88232
36.92022
36.94363
36.96383
36.97638
36.98519
36.9917
36.9966
37.00025
37.00288
37.00463
37.00557
37.00576
37.0052
37.00386
37.00169
36.99857
36.99433
36.98868
36.98114
36.97071
36.9552
36.93086
36.90517
36.84249
36.70944
36.31008
36.49035
36.61552
36.71444
36.80999
36.87123
36.91471
36.94696
36.97128
36.98944
37.00253
37.01121
37.01592
37.01685
37.01405
37.00739
36.99657
36.98105
36.95998
36.93198
36.89467
36.84347
36.76852
36.65874
36.56051
36.39776
36.00708
36.19669
36.3537
36.49632
36.65181
36.7566
36.83248
36.88931
36.93238
36.96464
36.98793
37.00342
37.0118
37.01346
37.00847
36.9966
36.97732
36.94973
36.91235
36.86288
36.79739
36.70873
36.58281
36.41391
36.28183
36.09397
35.76994
35.96194
36.12964
36.29676
36.49612
36.63721
36.74196
36.82149
36.88219
36.92786
36.96094
36.98297
36.99492
36.99728
36.99017
36.97327
36.94586
36.90673
36.85392
36.78441
36.69329
36.57219
36.40599
36.19791
36.05186
35.85581
35.57043
35.76669
35.93193
36.1155
36.34626
36.51631
36.64589
36.74579
36.82271
36.88091
36.92321
36.95146
36.96679
36.96983
36.96069
36.93901
36.90392
36.85395
36.78682
36.69906
36.58537
36.43726
36.24057
36.00515
35.85433
35.6604
35.42141
35.59259
35.7555
35.95014
36.2024
36.39547
36.5461
36.66397
36.75558
36.82532
36.8762
36.91026
36.92879
36.93246
36.92141
36.89524
36.85297
36.79298
36.71275
36.60867
36.47541
36.30503
36.08545
35.83324
35.67313
35.50567
35.41991
35.59758
35.79485
36.06311
36.27521
36.44376
36.57737
36.68213
36.76235
36.82112
36.86058
36.88207
36.88633
36.87351
36.84317
36.79427
36.7251
36.63306
36.51451
36.36434
36.17526
35.93723
35.67594
35.51369
35.33886
35.26875
35.44594
35.64729
35.92867
36.15603
36.33962
36.48689
36.60334
36.69302
36.75899
36.80338
36.82761
36.83242
36.81796
36.78378
36.72882
36.65132
36.5487
36.41742
36.25279
36.04837
35.79572
35.52443
35.36423
35.18432
35.1344
35.29663
35.50801
35.79915
36.03805
36.23407
36.39316
36.51993
36.6181
36.69057
36.73948
36.76621
36.77152
36.75556
36.71788
36.6574
36.5724
36.46034
36.31793
36.14102
35.92441
35.66116
35.38132
35.19828
35.06486
34.97298
35.11832
35.33684
35.63378
35.8844
36.09394
36.26632
36.40489
36.5129
36.59302
36.64726
36.67696
36.68286
36.66512
36.62328
36.55631
36.46255
36.33963
36.18459
35.99404
35.76455
35.49145
35.20704
35.05271
34.86245
35.06331
35.35593
35.62107
35.84839
36.03825
36.19258
36.31407
36.40486
36.46663
36.50056
36.50731
36.48702
36.43929
36.36319
36.25729
36.11969
35.94795
35.73946
35.49333
35.2092
34.93002
34.79325
34.7949
35.06846
35.35129
35.59323
35.79618
35.96236
36.09436
36.19362
36.26145
36.29879
36.30622
36.28389
36.23141
36.14801
36.03255
35.88367
35.69956
35.47702
35.21643
34.90256
34.66705
34.76714
35.0708
35.32555
35.53842
35.71386
35.85433
35.96043
36.03318
36.07335
36.08136
36.05732
36.00093
35.91163
35.78846
35.6306
35.43703
35.20325
34.93426
34.6291
34.50803
34.77721
35.04403
35.26391
35.44669
35.59388
35.70542
35.78226
35.82492
35.83344
35.80787
35.74814
35.65407
35.5248
35.35974
35.15898
34.91746
34.64266
34.48485
34.74228
34.9697
35.15898
35.31177
35.42784
35.50824
35.55333
35.56236
35.53526
35.47246
35.37434
35.2401
35.06882
34.86124
34.59018
34.35288
34.41826
34.64542
34.84449
35.00566
35.12624
35.21004
35.2578
35.26739
35.23864
35.1726
35.07085
34.9303
34.74957
34.51328
34.28471
34.31899
34.50908
34.67575
34.79995
34.88741
34.93855
34.9483
34.91828
34.84791
34.74326
34.59583
34.40521
34.20366
34.16498
34.32772
34.45693
34.54308
34.59749
34.60369
34.57656
34.49767
34.38307
34.25322
34.13127
34.20112
34.23926
34.22096
34.23152
34.15975
36.82556
36.88839
36.92095
36.94067
36.95662
36.97268
36.98331
36.99103
36.99684
37.00127
37.00459
37.007
37.0086
37.00947
37.00964
37.00912
37.00789
37.0059
37.00305
36.99921
36.99413
36.98745
36.97846
36.96564
36.94755
36.93204
36.9065
36.86738
36.73109
36.34996
36.49675
36.61996
36.70253
36.7756
36.85319
36.90541
36.9436
36.97247
36.99448
37.01104
37.02302
37.031
37.03532
37.03618
37.0336
37.02749
37.01756
37.00338
36.98423
36.95902
36.92589
36.88151
36.81887
36.7335
36.66526
36.56468
36.40342
36.27185
36.01763
36.20591
36.36263
36.48092
36.59519
36.7257
36.81628
36.8834
36.9345
36.9736
37.00309
37.02447
37.03872
37.04645
37.04798
37.04337
37.03244
37.01473
36.98944
36.95537
36.91065
36.85221
36.77463
36.66721
36.52836
36.42611
36.28951
36.10712
35.76873
35.9667
36.1422
36.28038
36.42245
36.59548
36.71967
36.81326
36.8852
36.94057
36.98248
37.01294
37.03328
37.04431
37.0465
37.03992
37.02432
36.99905
36.96307
36.91474
36.85157
36.76961
36.66221
36.51691
36.33828
36.21547
36.05955
35.85861
35.56564
35.76764
35.94958
36.09819
36.25965
36.46575
36.61836
36.73551
36.82658
36.89715
36.9508
36.98991
37.01606
37.03028
37.03309
37.02462
37.00453
36.97206
36.92593
36.86417
36.7839
36.68067
36.54732
36.37115
36.16304
36.02745
35.86332
35.65688
35.3997
35.59873
35.77401
35.93058
36.10651
36.33788
36.51416
36.65194
36.76026
36.84483
36.90943
36.95668
36.98834
37.00558
37.00899
36.99872
36.97438
36.9351
36.87945
36.80525
36.70937
36.5872
36.43162
36.23068
36.00087
35.85498
35.68809
35.49418
35.28561
35.42158
35.613
35.77632
35.96138
36.21214
36.40812
36.5638
36.68754
36.78486
36.85957
36.91439
36.95122
36.9713
36.97528
36.9633
36.93497
36.88934
36.82486
36.73925
36.62928
36.4904
36.31587
36.09497
35.84994
35.69746
35.5231
35.35512
35.27558
35.46487
35.63077
35.82268
36.08872
36.30093
36.47201
36.60942
36.71825
36.80221
36.86403
36.90566
36.92838
36.93289
36.91933
36.88728
36.83575
36.76315
36.66716
36.54458
36.39109
36.20059
35.96364
35.70665
35.55033
35.37471
35.19009
35.13533
35.31275
35.48976
35.68962
35.9675
36.19289
36.37714
36.52659
36.64576
36.73813
36.80637
36.85244
36.87762
36.88262
36.86758
36.83209
36.77514
36.69512
36.58974
36.45592
36.28972
36.08588
35.83629
35.56916
35.40465
35.20644
35.04885
34.98097
35.13305
35.31824
35.52228
35.81065
36.04999
36.24897
36.41223
36.54342
36.64569
36.72157
36.77293
36.80106
36.80665
36.78985
36.75023
36.6868
36.59801
36.48164
36.33485
36.15422
35.93576
35.6736
35.39901
35.23141
35.06335
34.88467
35.04609
35.24919
35.54307
35.80016
36.01889
36.20083
36.34856
36.46472
36.55149
36.61051
36.64293
36.64938
36.63
36.5844
36.51168
36.41045
36.27881
36.11433
35.91427
35.67649
35.40055
35.12615
34.95722
34.80077
34.78126
34.97255
35.26635
35.54051
35.77505
35.97138
36.1319
36.25909
36.35466
36.41994
36.45589
36.46305
36.44154
36.39103
36.31075
36.19956
36.05595
35.87791
35.66267
35.4086
35.11743
34.84405
34.70439
34.703
34.98239
35.27025
35.5163
35.72353
35.89409
36.03016
36.13291
36.20334
36.24224
36.25
36.22671
36.17211
36.08565
35.96638
35.81324
35.62474
35.39809
35.13311
34.81508
34.56705
34.6855
34.98799
35.24066
35.45622
35.63492
35.77828
35.88692
35.96168
36.00314
36.01142
35.98657
35.9285
35.83691
35.71101
35.55006
35.35325
35.11845
34.85189
34.54648
34.40917
34.68741
34.94327
35.16666
35.35282
35.5028
35.6166
35.69513
35.7389
35.74768
35.72138
35.66023
35.5642
35.43239
35.2643
35.05976
34.81568
34.54952
34.38662
34.62313
34.85154
35.04526
35.20277
35.32158
35.40348
35.44944
35.45863
35.43105
35.36703
35.26701
35.12879
34.9529
34.74023
34.49415
34.24178
34.315
34.52139
34.71318
34.87941
35.00252
35.08711
35.13491
35.14417
35.11592
35.04927
34.9464
34.80089
34.61929
34.40835
34.1998
34.17636
34.36475
34.54015
34.66163
34.74737
34.79517
34.80245
34.77705
34.7082
34.60617
34.45984
34.28739
34.19573
34.29804
34.38725
34.43305
34.43435
34.41657
34.33253
34.25089
34.11387
34.11946
34.1275
36.78799
36.88838
36.92122
36.94093
36.95424
36.9664
36.97985
36.98914
36.99605
37.00133
37.00538
37.00844
37.01066
37.01214
37.01294
37.0131
37.01262
37.01149
37.00965
37.00702
37.00349
36.99886
36.99283
36.98486
36.97384
36.95934
36.94821
36.93209
36.90755
36.85693
36.31013
36.49673
36.62049
36.70491
36.76514
36.82273
36.8884
36.93427
36.96853
36.99477
37.01494
37.0302
37.04127
37.04864
37.05264
37.05343
37.05105
37.0454
37.03622
37.02313
37.00553
36.98251
36.95257
36.91313
36.85893
36.78905
36.73741
36.66645
36.56478
36.41173
36.00714
36.20597
36.36549
36.48657
36.57982
36.67409
36.78672
36.86702
36.92753
36.97413
37.01006
37.03728
37.05706
37.07026
37.07742
37.07883
37.07457
37.06445
37.04804
37.02467
36.99329
36.95233
36.8993
36.82989
36.73573
36.61845
36.53617
36.43005
36.29146
36.10141
35.77001
35.96677
36.1455
36.28877
36.40427
36.52639
36.67897
36.79041
36.87541
36.94134
36.9924
37.0312
37.05946
37.07833
37.08858
37.09061
37.0845
37.07001
37.04656
37.01321
36.96855
36.91046
36.83566
36.73867
36.60925
36.45373
36.34956
36.22107
36.06107
35.85807
35.5705
35.76771
35.95325
36.10876
36.23931
36.38256
36.56812
36.70691
36.81422
36.89816
36.96352
37.01336
37.04976
37.07411
37.08735
37.08997
37.08208
37.06337
37.03314
36.99024
36.93295
36.85877
36.7639
36.64218
36.48261
36.29678
36.17684
36.03446
35.86445
35.65859
35.42145
35.59876
35.78071
35.94248
36.08414
36.24367
36.45594
36.6183
36.74561
36.84608
36.92478
36.98504
37.02916
37.05875
37.07485
37.07805
37.06844
37.0457
37.00901
36.95706
36.88792
36.79884
36.68573
36.54223
36.3574
36.14776
36.0158
35.86414
35.69189
35.4994
35.42158
35.61836
35.78825
35.93826
36.10974
36.34339
36.52583
36.67084
36.78634
36.87736
36.94734
36.99873
37.03327
37.05209
37.05583
37.0446
37.01803
36.97524
36.91481
36.83467
36.73193
36.60244
36.43998
36.23419
36.00635
35.86565
35.70595
35.52508
35.34706
35.2756
35.47281
35.6448
35.7998
35.98015
36.23092
36.43034
36.5909
36.71993
36.82223
36.90121
36.95939
36.99858
37.01996
37.02421
37.01144
36.98128
36.93278
36.86447
36.77419
36.65903
36.51496
36.33611
36.11307
35.87111
35.72442
35.56106
35.37899
35.19036
35.13535
35.33112
35.50667
35.66659
35.85421
36.11859
36.33228
36.50646
36.64762
36.76018
36.84745
36.91194
36.95545
36.97923
36.98396
36.96976
36.93623
36.88242
36.80682
36.70726
36.58087
36.42385
36.23093
35.99377
35.74063
35.58862
35.42093
35.23544
35.05496
34.98098
35.16912
35.33931
35.50006
35.69344
35.97129
36.20054
36.39021
36.54547
36.67014
36.76729
36.83934
36.8881
36.91479
36.92009
36.90415
36.86655
36.80633
36.722
36.61143
36.4719
36.29998
36.0913
35.83933
35.57606
35.42086
35.25658
35.0732
34.89263
35.05809
35.22533
35.4249
35.71627
35.96545
36.17611
36.35085
36.49254
36.60385
36.68692
36.7434
36.7744
36.78057
36.76203
36.71841
36.64881
36.55186
36.42567
36.26782
36.07547
35.84586
35.57646
35.30379
35.14339
34.96586
34.80452
34.79522
34.9501
35.15398
35.45223
35.71745
35.94447
36.13438
36.28953
36.41228
36.5044
36.56729
36.6019
36.60879
36.58809
36.53944
36.46209
36.35485
36.21617
36.04396
35.83577
35.58962
35.30688
35.0303
34.86408
34.69816
34.68422
34.88049
35.17847
35.4563
35.69522
35.89673
36.06256
36.19459
36.29418
36.36241
36.40007
36.40758
36.38503
36.33217
36.24839
36.13272
35.98399
35.80061
35.58054
35.32248
35.02783
34.74935
34.599
34.61562
34.89589
35.18029
35.42688
35.63738
35.81188
35.95166
36.0575
36.13024
36.1705
36.17855
36.15441
36.09797
36.00879
35.88609
35.72906
35.53675
35.30799
35.04367
34.72868
34.47534
34.59623
34.88232
35.13666
35.35479
35.53688
35.68353
35.79484
35.87147
35.91402
35.92253
35.89701
35.83746
35.7436
35.61466
35.4503
35.25033
35.01372
34.73753
34.45162
34.30493
34.54465
34.82363
35.04823
35.23678
35.39021
35.50653
35.58652
35.63105
35.63994
35.61325
35.55099
35.45306
35.31807
35.14683
34.94068
34.69547
34.4302
34.22826
34.47194
34.71773
34.91237
35.07282
35.19336
35.27601
35.32203
35.3311
35.30371
35.23922
35.13819
34.99728
34.81902
34.6083
34.37396
34.15571
34.36682
34.56971
34.73319
34.85555
34.94078
34.9879
34.99664
34.96946
34.90255
34.80024
34.65531