
4788
(
4(0 1 2 3)
4(4 5 6 7)
5(8 9 10 11 12)
4(13 14 15 16)
4(17 18 19 20)
4(21 22 23 24)
4(25 26 27 28)
4(29 30 31 32)
5(33 34 35 36 37)
4(38 39 40 41)
4(42 43 44 45)
6(46 47 48 49 50 51)
4(52 53 54 55)
4(56 57 58 59)
5(60 61 62 63 64)
4(65 66 67 68)
4(69 70 71 72)
5(73 74 75 76 77)
5(78 79 80 81 82)
4(83 84 85 86)
6(87 88 89 90 91 92)
5(93 94 95 96 97)
4(98 99 100 101)
4(102 103 104 105)
4(106 107 108 109)
4(110 111 112 113)
4(114 115 116 117)
4(118 119 120 121)
5(122 123 124 125 126)
4(127 128 129 130)
6(131 132 133 134 135 136)
6(137 138 139 140 141 142)
5(143 144 145 146 147)
4(148 149 150 151)
4(152 153 154 155)
4(156 157 158 159)
5(160 161 162 163 164)
4(165 166 167 168)
4(169 170 171 172)
4(173 174 175 176)
5(177 178 179 180 181)
5(182 183 184 185 186)
5(187 188 189 190 191)
6(192 193 194 195 196 197)
5(198 199 200 201 202)
4(203 204 205 206)
4(207 208 209 210)
4(211 212 213 214)
4(215 216 217 218)
4(219 220 221 222)
4(223 224 225 226)
4(227 228 229 230)
5(231 232 233 234 235)
5(236 237 238 239 240)
6(241 242 243 244 245 246)
6(247 248 249 250 251 252)
4(253 254 255 256)
6(257 258 259 260 261 262)
4(263 264 265 266)
4(267 268 269 270)
5(271 272 273 274 275)
4(276 277 278 279)
4(280 281 282 283)
5(284 285 286 287 288)
5(289 290 291 292 293)
4(294 295 296 297)
4(298 299 300 301)
6(302 303 304 305 306 307)
6(308 309 310 311 312 313)
5(314 315 316 317 318)
4(319 320 321 322)
4(323 324 325 326)
5(327 328 329 330 331)
4(332 333 334 335)
4(336 337 338 339)
4(340 341 342 343)
5(344 345 346 347 348)
4(349 350 351 352)
4(353 354 355 356)
6(357 358 359 360 361 362)
5(363 364 365 366 367)
4(368 369 370 371)
6(372 373 374 375 376 377)
5(378 379 380 381 382)
6(383 384 385 386 387 388)
4(389 390 391 392)
4(393 394 395 396)
5(397 398 399 400 401)
4(402 403 404 405)
4(406 407 408 409)
4(410 411 412 413)
5(414 415 416 417 418)
4(419 420 421 422)
5(423 424 425 426 427)
6(428 429 430 431 432 433)
6(434 435 436 437 438 439)
5(440 441 442 443 444)
5(445 446 447 448 449)
5(450 451 452 453 454)
4(455 456 457 458)
6(459 460 461 462 463 464)
4(465 466 467 468)
4(469 470 471 472)
4(473 474 475 476)
4(477 478 479 480)
4(481 482 483 484)
5(485 486 487 488 489)
4(490 491 492 493)
5(494 495 496 497 498)
6(499 500 501 502 503 504)
6(505 506 507 508 509 510)
5(511 512 513 514 515)
5(516 517 518 519 520)
5(521 522 523 524 525)
6(526 527 528 529 530 531)
4(532 533 534 535)
4(536 537 538 539)
5(540 541 542 543 544)
4(545 546 547 548)
4(549 550 551 552)
5(553 554 555 556 557)
5(558 559 560 561 562)
4(563 564 565 566)
6(567 568 569 570 571 572)
6(573 574 575 576 577 578)
6(579 580 581 582 583 584)
6(585 586 587 588 589 590)
5(591 592 593 594 595)
5(596 597 598 599 600)
5(601 602 603 604 605)
4(606 607 608 609)
6(610 611 612 613 614 615)
4(616 617 618 619)
4(620 621 622 623)
4(624 625 626 627)
4(628 629 630 631)
4(632 633 634 635)
4(636 637 638 639)
4(640 641 642 643)
4(644 645 646 647)
5(648 649 650 651 652)
4(653 654 655 656)
5(657 658 659 660 661)
6(662 663 664 665 666 667)
6(668 669 670 671 672 673)
5(674 675 676 677 678)
5(679 680 681 682 683)
5(684 685 686 687 688)
5(689 690 691 692 693)
6(694 695 696 697 698 699)
6(700 701 702 703 704 705)
6(706 707 708 709 710 711)
4(712 713 714 715)
4(716 717 718 719)
5(720 721 722 723 724)
4(725 726 727 728)
4(729 730 731 732)
4(733 734 735 736)
4(737 738 739 740)
4(741 742 743 744)
5(745 746 747 748 749)
4(750 751 752 753)
5(754 755 756 757 758)
4(759 760 761 762)
5(763 764 765 766 767)
4(768 769 770 771)
6(772 773 774 775 776 777)
6(778 779 780 781 782 783)
5(784 785 786 787 788)
5(789 790 791 792 793)
5(794 795 796 797 798)
5(799 800 801 802 803)
6(804 805 806 807 808 809)
6(810 811 812 813 814 815)
6(816 817 818 819 820 821)
4(822 823 824 825)
5(826 827 828 829 830)
4(831 832 833 834)
4(835 836 837 838)
5(839 840 841 842 843)
4(844 845 846 847)
4(848 849 850 851)
5(852 853 854 855 856)
4(857 858 859 860)
4(861 862 863 864)
4(865 866 867 868)
5(869 870 871 872 873)
4(874 875 876 877)
6(878 879 880 881 882 883)
6(884 885 886 887 888 889)
6(890 891 892 893 894 895)
5(896 897 898 899 900)
5(901 902 903 904 905)
5(906 907 908 909 910)
5(911 912 913 914 915)
5(916 917 918 919 920)
5(921 922 923 924 925)
5(926 927 928 929 930)
5(931 932 933 934 935)
5(936 937 938 939 940)
5(941 942 943 944 945)
5(946 947 948 949 950)
5(951 952 953 954 955)
4(956 957 958 959)
4(960 961 962 963)
4(964 965 966 967)
4(968 969 970 971)
6(972 973 974 975 976 977)
5(978 979 980 981 982)
6(983 984 985 986 987 988)
6(989 990 991 992 993 994)
6(995 996 997 998 999 1000)
6(1001 1002 1003 1004 1005 1006)
6(1007 1008 1009 1010 1011 1012)
4(1013 1014 1015 1016)
6(1017 1018 1019 1020 1021 1022)
4(1023 1024 1025 1026)
6(1027 1028 1029 1030 1031 1032)
6(1033 1034 1035 1036 1037 1038)
5(1039 1040 1041 1042 1043)
6(1044 1045 1046 1047 1048 1049)
5(1050 1051 1052 1053 1054)
4(1055 1056 1057 1058)
5(1059 1060 1061 1062 1063)
4(1064 1065 1066 1067)
4(1068 1069 1070 1071)
4(1072 1073 1074 1075)
4(1076 1077 1078 1079)
5(1080 1081 1082 1083 1084)
4(1085 1086 1087 1088)
4(1089 1090 1091 1092)
5(1093 1094 1095 1096 1097)
5(1098 1099 1100 1101 1102)
4(1103 1104 1105 1106)
5(1107 1108 1109 1110 1111)
5(1112 1113 1114 1115 1116)
4(1117 1118 1119 1120)
6(1121 1122 1123 1124 1125 1126)
4(1127 1128 1129 1130)
6(1131 1132 1133 1134 1135 1136)
4(1137 1138 1139 1140)
6(1141 1142 1143 1144 1145 1146)
4(1147 1148 1149 1150)
5(1151 1152 1153 1154 1155)
5(1156 1157 1158 1159 1160)
4(1161 1162 1163 1164)
4(1165 1166 1167 1168)
4(1169 1170 1171 1172)
5(1173 1174 1175 1176 1177)
4(1178 1179 1180 1181)
4(1182 1183 1184 1185)
6(1186 1187 1188 1189 1190 1191)
4(1192 1193 1194 1195)
4(1196 1197 1198 1199)
5(1200 1201 1202 1203 1204)
5(1205 1206 1207 1208 1209)
5(1210 1211 1212 1213 1214)
4(1215 1216 1217 1218)
4(1219 1220 1221 1222)
5(1223 1224 1225 1226 1227)
4(1228 1229 1230 1231)
5(1232 1233 1234 1235 1236)
4(1237 1238 1239 1240)
5(1241 1242 1243 1244 1245)
4(1246 1247 1248 1249)
5(1250 1251 1252 1253 1254)
5(1255 1256 1257 1258 1259)
4(1260 1261 1262 1263)
5(1264 1265 1266 1267 1268)
4(1269 1270 1271 1272)
4(1273 1274 1275 1276)
4(1277 1278 1279 1280)
5(1281 1282 1283 1284 1285)
4(1286 1287 1288 1289)
4(1290 1291 1292 1293)
4(1294 1295 1296 1297)
4(1298 1299 1300 1301)
4(1302 1303 1304 1305)
4(1306 1307 1308 1309)
4(1310 1311 1312 1313)
4(1314 1315 1316 1317)
4(1318 1319 1320 1321)
4(1322 1323 1324 1325)
4(1326 1327 1328 1329)
4(1330 1331 1332 1333)
4(1334 1335 1336 1337)
4(1338 1339 1340 1341)
4(1342 1343 1344 1345)
4(1346 1347 1348 1349)
4(1350 1351 1352 1353)
4(1354 1355 1356 1357)
4(1358 1359 1360 1361)
4(1362 1363 1364 1365)
5(1366 1367 1368 1369 1370)
4(1371 1372 1373 1374)
4(1375 1376 1377 1378)
4(1379 1380 1381 1382)
4(1383 1384 1385 1386)
4(1387 1388 1389 1390)
4(1391 1392 1393 1394)
5(1395 1396 1397 1398 1399)
4(1400 1401 1402 1403)
5(1404 1405 1406 1407 1408)
4(1409 1410 1411 1412)
4(1413 1414 1415 1416)
5(1417 1418 1419 1420 1421)
4(1422 1423 1424 1425)
4(1426 1427 1428 1429)
4(1430 1431 1432 1433)
5(1434 1435 1436 1437 1438)
4(1439 1440 1441 1442)
4(1443 1444 1445 1446)
4(1447 1448 1449 1450)
4(1451 1452 1453 1454)
5(1455 1456 1457 1458 1459)
4(1460 1461 1462 1463)
6(1464 1465 1466 1467 1468 1469)
6(1470 1471 1472 1473 1474 1475)
5(1476 1477 1478 1479 1480)
5(1481 1482 1483 1484 1485)
5(1486 1487 1488 1489 1490)
5(1491 1492 1493 1494 1495)
4(1496 1497 1498 1499)
5(1500 1501 1502 1503 1504)
4(1505 1506 1507 1508)
4(1509 1510 1511 1512)
5(1513 1514 1515 1516 1517)
4(1518 1519 1520 1521)
5(1522 1523 1524 1525 1526)
5(1527 1528 1529 1530 1531)
5(1532 1533 1534 1535 1536)
4(1537 1538 1539 1540)
4(1541 1542 1543 1544)
4(1545 1546 1547 1548)
6(1549 1550 1551 1552 1553 1554)
4(1555 1556 1557 1558)
4(1559 1560 1561 1562)
4(1563 1564 1565 1566)
4(1567 1568 1569 1570)
4(1571 1572 1573 1574)
5(1575 1576 1577 1578 1579)
6(1580 1581 1582 1583 1584 1585)
6(1586 1587 1588 1589 1590 1591)
6(1592 1593 1594 1595 1596 1597)
6(1598 1599 1600 1601 1602 1603)
4(1604 1605 1606 1607)
6(1608 1609 1610 1611 1612 1613)
4(1614 1615 1616 1617)
6(1618 1619 1620 1621 1622 1623)
4(1624 1625 1626 1627)
6(1628 1629 1630 1631 1632 1633)
4(1634 1635 1636 1637)
6(1638 1639 1640 1641 1642 1643)
6(1644 1645 1646 1647 1648 1649)
4(1650 1651 1652 1653)
6(1654 1655 1656 1657 1658 1659)
4(1660 1661 1662 1663)
4(1664 1665 1666 1667)
4(1668 1669 1670 1671)
4(1672 1673 1674 1675)
5(1676 1677 1678 1679 1680)
5(1681 1682 1683 1684 1685)
6(1686 1687 1688 1689 1690 1691)
5(1692 1693 1694 1695 1696)
6(1697 1698 1699 1700 1701 1702)
6(1703 1704 1705 1706 1707 1708)
4(1709 1710 1711 1712)
6(1713 1714 1715 1716 1717 1718)
4(1719 1720 1721 1722)
6(1723 1724 1725 1726 1727 1728)
5(1729 1730 1731 1732 1733)
6(1734 1735 1736 1737 1738 1739)
5(1740 1741 1742 1743 1744)
6(1745 1746 1747 1748 1749 1750)
5(1751 1752 1753 1754 1755)
4(1756 1757 1758 1759)
4(1760 1761 1762 1763)
4(1764 1765 1766 1767)
4(1768 1769 1770 1771)
4(1772 1773 1774 1775)
4(1776 1777 1778 1779)
5(1780 1781 1782 1783 1784)
4(1785 1786 1787 1788)
5(1789 1790 1791 1792 1793)
5(1794 1795 1796 1797 1798)
4(1799 1800 1801 1802)
6(1803 1804 1805 1806 1807 1808)
6(1809 1810 1811 1812 1813 1814)
4(1815 1816 1817 1818)
6(1819 1820 1821 1822 1823 1824)
5(1825 1826 1827 1828 1829)
5(1830 1831 1832 1833 1834)
6(1835 1836 1837 1838 1839 1840)
6(1841 1842 1843 1844 1845 1846)
6(1847 1848 1849 1850 1851 1852)
4(1853 1854 1855 1856)
6(1857 1858 1859 1860 1861 1862)
5(1863 1864 1865 1866 1867)
4(1868 1869 1870 1871)
4(1872 1873 1874 1875)
4(1876 1877 1878 1879)
4(1880 1881 1882 1883)
5(1884 1885 1886 1887 1888)
4(1889 1890 1891 1892)
4(1893 1894 1895 1896)
4(1897 1898 1899 1900)
4(1901 1902 1903 1904)
4(1905 1906 1907 1908)
5(1909 1910 1911 1912 1913)
5(1914 1915 1916 1917 1918)
4(1919 1920 1921 1922)
4(1923 1924 1925 1926)
5(1927 1928 1929 1930 1931)
4(1932 1933 1934 1935)
6(1936 1937 1938 1939 1940 1941)
5(1942 1943 1944 1945 1946)
5(1947 1948 1949 1950 1951)
5(1952 1953 1954 1955 1956)
5(1957 1958 1959 1960 1961)
6(1962 1963 1964 1965 1966 1967)
6(1968 1969 1970 1971 1972 1973)
5(1974 1975 1976 1977 1978)
5(1979 1980 1981 1982 1983)
6(1984 1985 1986 1987 1988 1989)
4(1990 1991 1992 1993)
4(1994 1995 1996 1997)
4(1998 1999 2000 2001)
5(2002 2003 2004 2005 2006)
4(2007 2008 2009 2010)
4(2011 2012 2013 2014)
5(2015 2016 2017 2018 2019)
6(2020 2021 2022 2023 2024 2025)
5(2026 2027 2028 2029 2030)
6(2031 2032 2033 2034 2035 2036)
4(2037 2038 2039 2040)
6(2041 2042 2043 2044 2045 2046)
5(2047 2048 2049 2050 2051)
5(2052 2053 2054 2055 2056)
5(2057 2058 2059 2060 2061)
4(2062 2063 2064 2065)
4(2066 2067 2068 2069)
6(2070 2071 2072 2073 2074 2075)
4(2076 2077 2078 2079)
4(2080 2081 2082 2083)
4(2084 2085 2086 2087)
4(2088 2089 2090 2091)
4(2092 2093 2094 2095)
5(2096 2097 2098 2099 2100)
6(2101 2102 2103 2104 2105 2106)
6(2107 2108 2109 2110 2111 2112)
6(2113 2114 2115 2116 2117 2118)
5(2119 2120 2121 2122 2123)
5(2124 2125 2126 2127 2128)
4(2129 2130 2131 2132)
6(2133 2134 2135 2136 2137 2138)
5(2139 2140 2141 2142 2143)
4(2144 2145 2146 2147)
4(2148 2149 2150 2151)
5(2152 2153 2154 2155 2156)
4(2157 2158 2159 2160)
4(2161 2162 2163 2164)
4(2165 2166 2167 2168)
5(2169 2170 2171 2172 2173)
4(2174 2175 2176 2177)
5(2178 2179 2180 2181 2182)
6(2183 2184 2185 2186 2187 2188)
6(2189 2190 2191 2192 2193 2194)
4(2195 2196 2197 2198)
5(2199 2200 2201 2202 2203)
5(2204 2205 2206 2207 2208)
5(2209 2210 2211 2212 2213)
4(2214 2215 2216 2217)
6(2218 2219 2220 2221 2222 2223)
4(2224 2225 2226 2227)
4(2228 2229 2230 2231)
4(2232 2233 2234 2235)
5(2236 2237 2238 2239 2240)
4(2241 2242 2243 2244)
5(2245 2246 2247 2248 2249)
6(2250 2251 2252 2253 2254 2255)
6(2256 2257 2258 2259 2260 2261)
5(2262 2263 2264 2265 2266)
6(2267 2268 2269 2270 2271 2272)
4(2273 2274 2275 2276)
6(2277 2278 2279 2280 2281 2282)
5(2283 2284 2285 2286 2287)
4(2288 2289 2290 2291)
4(2292 2293 2294 2295)
5(2296 2297 2298 2299 2300)
4(2301 2302 2303 2304)
4(2305 2306 2307 2308)
4(2309 2310 2311 2312)
5(2313 2314 2315 2316 2317)
4(2318 2319 2320 2321)
6(2322 2323 2324 2325 2326 2327)
6(2328 2329 2330 2331 2332 2333)
6(2334 2335 2336 2337 2338 2339)
4(2340 2341 2342 2343)
5(2344 2345 2346 2347 2348)
4(2349 2350 2351 2352)
6(2353 2354 2355 2356 2357 2358)
4(2359 2360 2361 2362)
5(2363 2364 2365 2366 2367)
4(2368 2369 2370 2371)
5(2372 2373 2374 2375 2376)
4(2377 2378 2379 2380)
4(2381 2382 2383 2384)
5(2385 2386 2387 2388 2389)
6(2390 2391 2392 2393 2394 2395)
6(2396 2397 2398 2399 2400 2401)
6(2402 2403 2404 2405 2406 2407)
5(2408 2409 2410 2411 2412)
4(2413 2414 2415 2416)
4(2417 2418 2419 2420)
4(2421 2422 2423 2424)
4(2425 2426 2427 2428)
4(2429 2430 2431 2432)
4(2433 2434 2435 2436)
5(2437 2438 2439 2440 2441)
4(2442 2443 2444 2445)
4(2446 2447 2448 2449)
6(2450 2451 2452 2453 2454 2455)
6(2456 2457 2458 2459 2460 2461)
5(2462 2463 2464 2465 2466)
4(2467 2468 2469 2470)
5(2471 2472 2473 2474 2475)
4(2476 2477 2478 2479)
4(2480 2481 2482 2483)
4(2484 2485 2486 2487)
5(2488 2489 2490 2491 2492)
4(2493 2494 2495 2496)
5(2497 2498 2499 2500 2501)
6(2502 2503 2504 2505 2506 2507)
6(2508 2509 2510 2511 2512 2513)
5(2514 2515 2516 2517 2518)
5(2519 2520 2521 2522 2523)
4(2524 2525 2526 2527)
4(2528 2529 2530 2531)
4(2532 2533 2534 2535)
4(2536 2537 2538 2539)
5(2540 2541 2542 2543 2544)
5(2545 2546 2547 2548 2549)
6(2550 2551 2552 2553 2554 2555)
5(2556 2557 2558 2559 2560)
5(2561 2562 2563 2564 2565)
4(2566 2567 2568 2569)
4(2570 2571 2572 2573)
4(2574 2575 2576 2577)
4(2578 2579 2580 2581)
4(2582 2583 2584 2585)
4(2586 2587 2588 2589)
6(2590 2591 2592 2593 2594 2595)
4(2596 2597 2598 2599)
4(2600 2601 2602 2603)
5(2604 2605 2606 2607 2608)
4(2609 2610 2611 2612)
4(2613 2614 2615 2616)
6(2617 2618 2619 2620 2621 2622)
4(2623 2624 2625 2626)
4(2627 2628 2629 2630)
4(2631 2632 2633 2634)
4(2635 2636 2637 2638)
4(2639 2640 2641 2642)
4(2643 2644 2645 2646)
4(2647 2648 2649 2650)
4(2651 2652 2653 2654)
4(2655 2656 2657 2658)
5(2659 2660 2661 2662 2663)
6(2664 2665 2666 2667 2668 2669)
4(2670 2671 2672 2673)
4(2674 2675 2676 2677)
4(2678 2679 2680 2681)
5(2682 2683 2684 2685 2686)
5(2687 2688 2689 2690 2691)
4(13 2692 2693 14)
4(17 14 2693 2694)
5(2695 2696 2697 2698 2699)
5(21 18 2700 2701 2702)
5(11 2703 2704 2705 12)
4(2706 2707 2708 41)
4(42 45 2709 2710)
5(44 2711 2712 2709 45)
4(2713 2714 2712 2711)
4(2713 2715 2716 2714)
5(2717 2718 2719 2716 2715)
4(60 2720 2721 2722)
4(24 19 18 21)
5(2723 34 33 26 2724)
4(69 32 31 70)
5(73 70 31 2725 2726)
6(73 2726 2725 2727 2728 74)
5(2728 2727 2729 2730 2731)
5(78 2732 2733 2734 79)
6(83 86 2735 2736 2733 2732)
5(2737 2738 2739 2711 44)
6(92 2740 2741 49 2742 2743)
5(2744 2731 2730 2741 2740)
5(98 54 2745 2746 93)
5(105 104 2747 2748 2749)
4(2750 2751 2752 2753)
4(106 2754 2755 107)
4(110 107 2755 2756)
4(110 2756 2757 111)
5(114 111 2757 2758 68)
4(77 71 70 73)
4(2759 76 2760 2761)
5(2762 2763 82 127 2764)
5(2765 2766 2744 91 90)
6(2767 84 83 2768 2769 2770)
6(2771 2770 2769 2763 2762 2772)
6(2773 2774 2767 2770 2771 2775)
5(2776 88 87 2777 2778)
6(136 2765 90 89 2779 131)
6(2779 89 88 2776 137 142)
5(2780 2781 2774 2773 2782)
5(2780 2783 96 95 2781)
4(102 105 101 100)
4(151 150 100 99)
4(152 102 100 150)
4(152 155 103 102)
5(2784 2785 2786 103 155)
4(156 109 108 157)
4(160 157 108 113)
4(118 116 115 119)
4(2787 117 116 2788)
4(2789 2788 116 118)
4(2790 121 126 2791)
5(2792 2793 2794 2795 2796)
4(2797 2791 126 125)
5(2797 125 124 2798 2799)
4(183 2800 2801 2802)
5(2803 2799 2798 2801 2800)
6(2804 2772 2762 2764 2805 2806)
6(183 2802 134 133 2807 184)
6(2808 2809 2810 2811 2812 2813)
5(2814 2815 139 138 2816)
6(2817 188 187 2818 141 140)
5(2819 2820 146 145 2821)
5(198 202 147 146 2820)
4(203 148 147 202)
4(153 152 150 149)
4(203 206 149 148)
4(207 153 149 206)
5(154 2822 2823 2784 155)
4(207 210 154 153)
5(2824 2814 2823 2822 2825)
4(164 158 157 160)
4(159 158 2826 2827)
4(2826 158 164 2828)
4(2787 2829 162 161)
4(2830 2828 164 163)
4(2789 2831 2832 2788)
4(225 2833 2834 228)
5(2835 2836 176 175 2837)
4(235 2838 2839 2840)
5(229 228 2834 2839 2838)
4(235 2840 2841 231)
6(2842 231 2841 2843 182 2844)
4(2845 2844 182 186)
6(2845 186 185 2846 241 246)
6(241 2846 190 189 2847 242)
5(2847 189 2848 252 251)
6(2849 2850 2808 2813 2851 2852)
6(2853 2852 2851 2854 2855 2856)
5(2857 2858 194 193 2824)
6(2859 247 252 2848 196 195)
6(2859 195 194 2858 257 262)
4(2860 201 200 2861)
5(2862 204 201 2860 2863)
4(208 207 206 205)
4(2864 2865 2866 209)
5(2867 2868 2864 209 208)
5(2869 2857 2870 2866 2865)
5(2869 258 257 2858 2857)
4(2871 2872 2873 2874)
4(2875 2876 2830 2877)
4(276 2878 2876 2875)
5(2879 2880 2881 224 223)
4(276 2875 2880 277)
4(280 277 2880 2879)
4(227 226 225 228)
5(280 2879 223 226 281)
4(285 281 226 227)
5(2882 2883 2884 2885 2886)
4(2842 2887 232 231)
4(2888 2889 234 233)
5(2888 233 232 2887 295)
5(2890 2891 2845 246 245)
4(2892 2893 2891 2890)
5(296 295 2887 2891 2893)
6(2894 2895 2896 2897 298 301)
6(2898 2899 2900 2895 2894 2901)
6(2902 2903 2892 2890 245 244)
6(2902 244 243 2904 307 306)
6(262 261 2905 248 247 2859)
6(2906 302 307 2904 250 249)
5(2907 2908 2861 253 256)
5(315 314 2907 256 255)
4(2909 2908 2907 314)
4(2862 2863 2910 2911)
4(2867 2912 2913 2914)
4(259 258 2869 2915)
4(327 331 2916 2917)
5(2918 259 2915 2916 331)
6(2919 309 308 2905 261 260)
5(2919 260 259 2918 2920)
4(2921 2913 2911 2922)
4(2921 324 2914 2913)
5(323 328 327 2917 2923)
4(2924 2925 2871 2926)
4(2927 2928 2929 279)
4(2930 2931 2924 2928)
4(2930 2928 2927 2932)
5(278 2933 2934 2927 279)
5(283 2933 278 277 280)
4(2935 2932 2927 2934)
5(349 352 2935 2934 2936)
4(284 282 281 285)
5(349 2936 283 282 350)
4(353 350 282 284)
5(2937 2938 2939 354 288)
6(361 2940 293 292 2941 362)
5(2942 2943 2888 295 294)
4(363 2944 2943 2942)
6(2945 297 296 2893 2892 2946)
6(2947 364 363 2942 294 297)
4(2947 297 2945 369)
5(306 305 2948 2903 2902)
5(2949 2950 2948 305 2951)
6(313 312 2952 303 302 2906)
4(2953 2951 305 304)
5(2953 304 303 2952 2954)
6(2955 2956 2957 2958 2959 2960)
4(315 2961 2962 316)
4(385 384 2962 2963)
6(2964 310 309 2919 2920 2965)
4(2966 2964 2965 2967)
5(2966 2968 311 310 2964)
6(383 2969 317 316 2962 384)
4(2970 318 317 2969)
4(2971 2922 319 322)
4(2972 2973 322 321)
5(2974 325 324 2921 2975)
4(396 395 2975 2976)
4(397 2974 2975 395)
4(329 328 323 326)
4(2977 390 2978 330)
5(2977 330 329 2979 2980)
6(389 2967 2965 2981 2978 390)
4(2982 2983 2984 2985)
4(2986 2987 2930 2932)
4(2988 2989 2935 352)
5(356 2990 351 350 353)
5(419 2991 2992 2990 356)
5(2993 2994 2988 2992 2991)
5(2995 420 355 2996 2997)
5(2998 2999 3000 3001 3002)
6(3003 3002 3001 3004 3005 3006)
6(3007 366 365 3008 434 439)
6(3009 377 376 3010 3011 3012)
4(3013 371 3014 444)
5(3015 372 377 3009 3016)
5(378 374 373 3017 379)
5(3018 440 444 3014 3019)
6(445 3020 380 379 3017 446)
5(3021 3022 2968 2966 3023)
6(3024 3025 3026 3027 3028 3029)
6(450 3030 387 386 3031 451)
4(3032 2969 383 388)
4(3033 388 387 3030)
4(2972 3034 3035 3036)
4(461 460 3035 3037)
4(2979 401 400 3038)
6(3039 391 390 2977 2980 3040)
4(3041 3039 3040 3042)
6(389 392 3043 3023 2966 2967)
4(3044 456 3043 392)
4(465 3045 393 3046)
4(3047 394 393 3045)
4(3047 3048 398 394)
4(3049 399 398 3048)
5(3049 470 3038 400 399)
5(469 3042 3040 3038 470)
4(3050 3051 3052 3053)
4(3054 3055 3056 3051)
4(3054 3051 3050 3057)
4(3058 3059 3060 3061)
5(422 3062 2993 2991 419)
5(3063 3061 3060 3064 3065)
5(3066 491 421 3067 3068)
6(3069 3006 3005 3070 3071 3072)
6(3073 3072 3071 3074 3075 3076)
6(3077 3078 3069 3072 3073 3079)
6(3080 432 431 3007 439 438)
6(501 3081 428 433 3082 502)
6(3082 433 432 3080 507 506)
4(3083 3084 3085 3086)
6(444 443 3087 436 435 3013)
4(3088 3089 436 3087)
4(3090 437 436 3089)
5(3091 3088 3087 443 442)
5(3092 3024 3029 3093 3094)
5(3095 517 516 3096 3092)
5(3095 3092 3094 521 525)
4(3097 3030 450 454)
4(461 3098 3099 462)
4(528 527 3099 3100)
6(3101 457 456 3044 3102 3103)
4(3104 3101 3103 3105)
5(455 458 3094 3093 3106)
5(3107 522 521 3094 458)
6(3107 458 457 3101 3104 3108)
4(467 466 459 464)
4(3109 464 463 3110)
4(536 3111 3112 3113)
4(3114 3115 3048 3047)
4(536 539 3114 3111)
4(544 3115 3114 539)
4(471 470 3049 3116)
4(544 543 3117 3115)
6(469 472 3118 3119 3041 3042)
4(3120 533 3118 472)
4(3121 3122 3123 3055)
4(3124 3122 3121 3125)
4(3126 3127 3128 3129)
5(558 562 3130 3131 3132)
4(558 3132 3133 559)
4(563 493 492 564)
5(3134 564 492 3135 3136)
5(578 577 3137 3138 3139)
6(3140 3076 3075 3141 3142 3143)
6(3144 3143 3142 3145 3146 3147)
6(3148 573 578 3139 499 504)
6(3148 504 503 3149 581 580)
6(3150 3151 3077 3079 3152 3153)
6(3154 3153 3152 3155 3156 3157)
6(587 3158 3150 3153 3154 3159)
5(3160 512 511 3084 3083)
4(587 586 3160 3158)
4(3161 3162 3163 3164)
6(3165 510 509 3162 3161 3166)
6(585 3167 513 512 3160 586)
4(519 3168 3091 520)
6(3169 3164 3163 3170 3171 3172)
5(3173 3174 3175 3176 3177)
5(591 3178 3173 3177 592)
5(598 597 3179 3173 3178)
5(518 517 3095 525 524)
5(524 3180 3181 3182 518)
5(3183 3184 519 518 3182)
4(528 3185 3186 529)
5(3108 3187 523 522 3107)
5(3188 3189 523 3187 3190)
5(3191 3180 524 523 3189)
4(3192 3110 526 531)
4(3193 531 530 3194)
6(612 3195 3192 531 3193 3196)
4(3197 3198 3199 3200)
4(612 611 3199 3195)
4(3201 543 542 3202)
4(3203 3204 3205 3206)
4(3207 607 3208 535)
6(3207 535 534 3204 3203 3209)
4(616 621 537 3210)
4(540 544 539 538)
4(620 538 537 621)
4(620 625 540 538)
4(624 541 540 625)
4(3211 3212 3124 3125)
4(3213 3214 3215 3212)
4(3213 3212 3211 3216)
4(3217 3218 3126 3129)
4(644 3219 3218 3217)
5(3130 3220 3221 3217 3129)
4(561 3220 3130 562)
4(644 3217 3221 645)
5(648 645 3221 3220 561)
4(566 560 559 563)
5(3222 3223 3224 3225 3226)
5(3227 565 564 3134 3228)
4(3229 565 3227 3230)
6(657 3231 571 570 3232 658)
4(576 3233 3137 577)
5(667 3234 3235 3233 576)
6(3236 3230 3227 3228 3235 3234)
6(3237 3147 3146 3238 3239 3240)
6(580 579 3241 574 573 3148)
5(3242 662 667 576 575)
6(3242 575 574 3241 668 673)
4(3243 3244 3245 3246)
4(587 3159 3247 588)
5(674 678 3247 3245 3244)
5(683 3248 583 3249 3250)
4(3251 584 583 3248)
6(3251 669 668 3241 579 584)
6(677 3252 589 588 3247 678)
6(3253 594 593 3167 585 590)
4(3254 594 3253 684)
4(689 693 3255 3256)
6(3257 3250 3249 3258 3259 3260)
5(3183 3261 3256 3262 3184)
5(3263 690 689 3256 3261)
5(3263 3261 3264 699 698)
5(3265 605 600 3266 3267)
5(3268 694 699 3264 3269)
5(3268 3269 3270 700 705)
4(3271 3194 602 601)
5(3272 601 605 3265 3273)
6(708 3274 3271 601 3272 3275)
4(612 3196 3276 613)
4(708 707 3276 3274)
4(3277 3278 3279 3280)
5(3281 701 700 3270 609)
6(3281 609 608 3278 3277 3282)
4(618 617 610 615)
4(3283 615 614 3284)
4(3283 3285 618 615)
4(622 621 616 619)
5(3286 3287 619 618 3285)
4(716 622 619 3287)
4(626 625 620 623)
4(630 629 624 627)
5(3288 3289 630 627 724)
6(628 631 3290 3291 3203 3206)
4(3292 631 630 3289)
4(3292 713 3290 631)
6(712 3280 3279 3291 3290 713)
4(725 3293 3294 726)
4(730 726 3294 3295)
5(3296 3297 3298 3299 3300)
4(3301 3302 3303 647)
5(3304 731 730 3295 3305)
5(652 651 3306 3307 646)
4(3308 3309 3301 3307)
4(3310 3311 3312 3313)
5(3314 655 654 3315 3316)
5(759 3317 3318 655 3314)
5(3319 3313 3312 3318 3317)
5(3320 3321 3322 3323 3324)
5(3325 3326 3236 666 665)
5(759 3314 3327 3328 760)
5(3328 3327 3326 3325 3329)
5(763 3330 3331 3332 764)
6(3333 3334 774 3335 3336 664)
5(3337 3329 3325 3336 3335)
6(3338 3339 3340 671 3341 3342)
6(3343 686 685 3252 677 676)
5(679 683 3250 3257 3344)
5(3345 3343 3346 3347 3348)
5(3345 3349 687 686 3343)
5(3350 3351 3254 684 688)
5(802 3352 3353 3354 692)
5(3355 3356 3357 3354 3353)
6(803 3358 697 696 3359 799)
6(3359 696 695 3360 804 809)
4(708 3275 3361 709)
6(3282 3362 3363 702 701 3281)
6(3364 805 804 3360 704 703)
4(3365 3284 706 711)
5(816 821 711 710 3366)
5(3367 3368 3365 711 821)
5(3369 3370 3286 3285 3283)
5(3371 714 713 3292 3372)
5(825 3373 3374 3375 715)
5(3376 3362 3377 3375 3374)
5(3376 811 810 3363 3362)
5(826 3378 3379 3380 3381)
4(831 717 3382 830)
4(835 838 722 721)
4(841 3383 722 838)
5(3384 3385 3383 841 840)
4(729 727 726 730)
4(848 728 727 849)
4(857 849 727 729)
4(857 729 732 858)
4(749 739 738 745)
4(3386 3387 3319 762)
5(3388 870 869 3389 3390)
5(3388 3390 3387 3386 3391)
5(878 3392 3393 3394 879)
6(3394 3393 3395 3396 884 889)
6(3397 769 768 3398 3399 3400)
5(3401 776 775 3402 3403)
6(3404 885 884 3396 772 777)
6(3404 777 776 3401 890 895)
6(3405 785 784 3406 778 783)
5(896 900 3405 783 782)
6(3407 3408 3409 3410 3338 3342)
6(3411 3408 3407 3412 3413 3414)
5(903 3409 3408 3411 3415)
5(903 902 3416 3417 3409)
6(899 3418 786 785 3405 900)
5(3419 3348 3347 788 787)
5(907 906 787 786 3418)
5(792 3420 3414 3413 793)
5(911 915 792 791 3421)
5(3422 3423 3420 792 915)
5(3424 3425 3426 794 798)
5(917 916 798 797 3427)
5(3428 3429 3424 798 916)
5(921 925 801 800 3430)
5(3431 912 911 3421 3432)
6(3433 3434 3435 3429 3428 3436)
6(921 3430 808 807 3437 922)
6(3437 807 806 3438 926 930)
4(933 932 3439 3440)
4(3441 3442 3443 3444)
6(3445 927 926 3438 814 813)
5(3446 3447 3448 820 819)
6(3449 3450 3451 3444 3443 3452)
6(938 3453 3454 3447 3446 939)
5(955 954 843 842 3455)
4(3456 3457 3458 3459)
5(3460 951 955 3455 3461)
4(3462 3463 855 3464)
5(859 3465 3466 3467 860)
4(962 961 3468 3469)
4(968 965 863 868)
4(873 867 866 869)
4(968 868 867 969)
4(974 969 867 873)
6(3470 975 3471 872 3472 3473)
6(3474 3475 3476 3477 3478 3479)
6(3480 3481 3474 3479 3482 3483)
6(3484 880 879 3394 889 888)
6(3485 984 983 3486 882 881)
6(3487 3488 3489 3490 3491 3492)
3(3493 3492 3494)
5(3495 3496 3487 3492 3493)
6(3497 886 885 3404 895 894)
3(992 887 1000)
6(3498 3499 3500 3501 3502 3503)
6(995 3497 894 893 3504 996)
6(3504 893 892 3505 1001 1006)
5(1009 1008 3506 898 897)
5(904 903 3415 3507 3508)
6(3509 3508 3507 3423 3422 3510)
6(1007 3511 909 908 3506 1008)
5(3512 3513 3514 906 910)
4(3515 910 909 3511)
4(1019 1018 3516 3517)
4(3518 3519 3520 3521)
5(914 3522 3510 3422 915)
4(3523 1014 3522 914)
6(3523 914 913 3519 3518 3524)
5(3525 3436 3428 916 920)
4(3526 920 919 3527)
4(1029 1028 3528 3529)
6(3530 923 922 3437 930 929)
4(3531 3530 929 3532)
4(3533 1024 3534 924)
6(3533 924 923 3530 3531 3535)
4(933 3536 3537 934)
5(1035 1034 3537 3538 3539)
5(3540 3541 928 3542 3543)
5(3544 3532 929 928 3541)
5(3545 3546 3451 942 941)
4(3547 3548 3546 3545)
6(3549 3543 3542 3550 3546 3548)
5(1039 1043 3551 3552 3553)
4(1046 936 3551 1043)
5(3547 3545 941 945 3554)
4(3554 945 944 3555)
6(1044 3556 949 948 3557 1045)
4(3558 3559 3560 3456)
5(3561 952 951 3460 3562)
6(3563 3564 3565 3566 3567 3568)
5(3569 1059 1063 3561 3562)
4(960 959 958 961)
5(967 963 962 3570 964)
4(3571 1073 966 971)
5(1082 1081 3572 3573 1079)
5(972 970 969 974 973)
4(3571 971 970 3574)
4(3470 3575 976 975)
4(3576 3577 972 977)
5(3576 977 976 3575 1086)
4(3578 3579 3580 3581)
6(3582 3583 3584 3585 3586 3587)
6(3588 986 985 3589 1093 1097)
6(3590 3494 3480 3483 3591 3592)
6(1098 1102 3593 994 993 3594)
6(3595 3596 3495 3493 3597 3598)
5(1112 3599 3600 3601 1103)
4(1009 3602 3603 1010)
4(1112 1116 3603 3599)
6(3604 3605 3606 1003 1002 3607)
4(3608 3606 3605 3609)
6(3610 1108 1107 3611 1005 1004)
4(3612 3511 1007 1012)
4(3613 1012 1011 3614)
6(1123 3615 3612 1012 3613 3616)
4(1019 3617 3618 1020)
4(1123 1122 3618 3615)
6(3619 1015 1014 3523 3524 3620)
4(3621 3619 3620 3622)
4(3623 1118 3624 1016)
6(3623 1016 1015 3619 3621 3625)
6(1117 3609 3605 3626 3624 1118)
4(3627 3527 1017 1022)
4(3628 1022 1021 3629)
6(1131 3630 3627 1022 3628 3631)
4(1029 3632 3633 1030)
4(1131 1136 3633 3630)
6(3634 1025 1024 3533 3535 3635)
4(3636 3634 3635 3637)
4(3638 1128 3639 1026)
4(3640 1032 1031 3641)
6(3544 3642 3643 3644 3531 3532)
5(3642 3544 3541 3540 3645)
4(3646 1138 3643 3642)
5(3646 3642 3645 1141 1146)
5(3647 3648 1038 1037 3649)
6(3549 3650 3651 3645 3540 3543)
4(1141 3645 3651 1142)
5(1142 3651 3650 3652 1148)
6(1151 1155 3653 1042 1041 3654)
5(3655 3656 3554 3555 3657)
6(3658 3659 3660 3656 3655 3661)
6(1158 1157 3662 1049 1048 3663)
6(3565 3664 3665 3657 3555 3566)
6(3666 3664 3565 3564 3667 3668)
6(3669 3670 3665 3664 3666 3671)
6(1156 3672 1053 1052 3662 1157)
4(3673 1054 1053 3672)
5(3674 3675 3676 1058 1057)
4(1169 3677 3676 3675)
4(1169 1172 3678 3677)
4(1173 3679 3678 1172)
4(1060 1059 3569 3680)
4(1173 1177 3681 3679)
4(3682 1162 3683 1061)
5(3682 1061 1060 3684 3685)
4(1067 1066 3686 3687)
4(3686 1066 1071 3688)
4(3689 3688 1071 1070)
4(3689 1070 3690 1179)
4(3691 3692 3693 3694)
4(3571 3695 3696 1073)
4(1180 1179 3690 3697)
4(3698 3699 3700 3574)
5(1184 1183 3695 3700 3701)
4(1184 3701 3702 1191)
4(1186 3699 3703 1187)
4(3704 1187 3703 3705)
6(3706 3707 3708 3709 1192 1195)
6(3710 1088 1087 3579 3578 3711)
6(3712 3713 3704 3705 1085 1088)
4(3712 1088 3710 1197)
5(1097 1096 3714 3715 3588)
5(3716 3717 3714 1096 3718)
6(1198 1197 3710 3711 3714 3717)
5(1201 3719 3720 3721 1202)
5(1095 1094 3593 1102 1101)
5(3722 3723 1095 1101 3724)
5(3725 3718 1096 1095 3723)
5(1212 1211 3726 3727 3728)
5(3729 3730 1100 1110 3731)
5(3732 3724 1101 1100 3730)
5(1210 3733 1105 3726 1211)
5(1112 1103 1106 3734 1113)
5(3735 3734 1106 1105 3733)
4(3736 1113 3734 3735)
4(1109 1108 3610 3737)
4(1223 1227 3738 3739)
5(3738 1227 1216 1109 3737)
5(1215 3731 1110 1109 1216)
4(3740 3614 1115 1114)
4(1123 3616 3741 1124)
4(3742 3743 3741 3744)
4(3745 3746 3747 1233)
5(3748 1224 1223 3739 1120)
5(1229 1125 1124 3741 3743)
4(3749 3629 1121 1126)
4(1228 1126 1125 1229)
4(1131 3631 3750 1132)
4(3751 3752 3750 3753)
4(3754 3755 3756 1242)
4(3757 1234 3758 1130)
5(3757 1130 1129 3755 3754)
4(3759 3641 1135 1134)
4(1237 1134 1133 1238)
4(1237 3760 3759 1134)
5(3761 3762 3763 3759 3760)
5(3764 3765 1139 1145 1247)
6(1137 1140 3766 3767 3636 3637)
4(3768 1140 1139 3765)
4(3768 1243 3766 1140)
5(1242 3756 3767 3766 1243)
5(1148 1147 3769 1143 1142)
4(1248 1247 1145 1144)
5(1248 1144 1143 3769 3770)
5(3771 3770 3769 1147 1150)
5(3771 1150 3772 1255 1259)
5(3773 1256 1255 3772 3774)
5(3773 3774 3775 1264 1268)
4(3776 3672 1156 1160)
4(3674 3777 3778 3779)
4(1269 1272 3778 3780)
4(3781 3782 3783 3784)
5(3785 1265 1264 3775 1164)
5(3785 1164 1163 3782 3781)
5(1170 1169 3675 1165 1168)