
4788
(
(-0.008052545 0.0007051399 -0.07150895)
(-0.009052931 0.003355069 -0.07098685)
(-0.001663871 0.009200175 -0.07115905)
(0.0186522 0.0007204756 -0.06951081)
(0.01851764 0.003604222 -0.06945109)
(0.01809847 0.006485373 -0.06923436)
(-0.01477113 0.009385347 -0.06964292)
(0.01782969 0.009366541 -0.06901495)
(-0.01481093 0.01239637 -0.06913621)
(0.01163288 0.01245001 -0.06955017)
(-0.007993702 0.01598346 -0.06946149)
(0.01125822 0.01612658 -0.0691005)
(-0.001240484 0.0214305 -0.06866361)
(-0.02769893 0.0006979915 -0.0664373)
(-0.02730047 0.003649317 -0.06650376)
(0.02529922 0.006621443 -0.06705607)
(0.02500038 0.009450078 -0.06682664)
(0.02454436 0.01240572 -0.06650914)
(-0.02144714 0.01623546 -0.06674451)
(-0.01479769 0.02106598 -0.06721553)
(0.01789132 0.02100284 -0.06646867)
(-0.008138158 0.02617633 -0.0665194)
(-0.001579179 0.02661572 -0.0668435)
(0.004677809 0.02650136 -0.06673483)
(0.03209471 0.0007267731 -0.06442474)
(0.03191015 0.003631862 -0.06441195)
(0.0317283 0.006524555 -0.06427434)
(0.03154799 0.009395068 -0.06400672)
(0.03071031 0.01256314 -0.0638765)
(-0.02831931 0.01625305 -0.06413652)
(0.02472158 0.02127557 -0.06415651)
(0.01826006 0.02668128 -0.06429711)
(-0.008166031 0.03175102 -0.06406049)
(-0.001583809 0.03219815 -0.06434251)
(0.004693657 0.03207866 -0.06425181)
(0.03783579 0.0007058013 -0.06123531)
(0.03763871 0.003654552 -0.06125138)
(-0.03662997 0.006573587 -0.06162783)
(-0.03617707 0.009434711 -0.06152179)
(-0.03508893 0.01254241 -0.06157814)
(-0.03401509 0.01631695 -0.06129693)
(0.03096823 0.02117213 -0.06141786)
(0.02529486 0.0266273 -0.06188989)
(0.01833725 0.03217368 -0.06170881)
(-0.008119575 0.0368994 -0.06124678)
(-0.001557513 0.03741854 -0.06145651)
(0.004687107 0.03734002 -0.06134396)
(-0.04149992 0.0007152858 -0.05881457)
(-0.04140015 0.003582216 -0.05877319)
(-0.04108173 0.006476888 -0.05875293)
(0.04008423 0.009609134 -0.05902586)
(0.03947711 0.01251592 -0.05888616)
(0.0380433 0.01641982 -0.05885108)
(-0.03523272 0.02122646 -0.05906004)
(0.03146959 0.02669548 -0.05896575)
(0.02511655 0.03233385 -0.05918761)
(-0.01488244 0.03858147 -0.05891778)
(0.01812668 0.03726022 -0.05884361)
(-0.04532102 0.0007135126 -0.05593216)
(-0.04518068 0.003564596 -0.05593183)
(-0.0450937 0.006514348 -0.05573814)
(0.04383862 0.006527273 -0.05673233)
(0.04390409 0.009440256 -0.05626082)
(0.04349798 0.01250326 -0.05597941)
(-0.04167923 0.01632865 -0.05636605)
(0.03964379 0.02130605 -0.05618094)
(-0.03623097 0.02659082 -0.05623213)
(0.03136457 0.03205548 -0.05628882)
(0.02485001 0.03736625 -0.05626842)
(-0.01475388 0.04261969 -0.05608072)
(-0.008196272 0.04406449 -0.05632189)
(0.005179227 0.04443624 -0.05639124)
(0.01146583 0.04322302 -0.05639263)
(-0.04819605 0.0007246855 -0.05347514)
(-0.04813314 0.003613056 -0.0534112)
(-0.04799109 0.006438897 -0.05327317)
(-0.04780676 0.009373204 -0.05300165)
(0.04678595 0.009500757 -0.05388927)
(0.04675971 0.01237511 -0.05331939)
(-0.04535289 0.01636788 -0.05345275)
(0.0434337 0.02114507 -0.05335905)
(0.03983495 0.02673907 -0.05366522)
(-0.03521947 0.03227888 -0.05383264)
(-0.02895028 0.03813926 -0.05373061)
(-0.0214614 0.04289804 -0.05365463)
(0.0183222 0.04427302 -0.05371642)
(-0.001547087 0.04804657 -0.05356377)
(0.004926297 0.047911 -0.05347692)
(-0.05090405 0.0007260316 -0.05090405)
(-0.05084043 0.003620871 -0.05084043)
(-0.05069956 0.006461754 -0.05069956)
(-0.05046975 0.009388883 -0.05046975)
(0.0494803 0.01242058 -0.05079384)
(-0.0482605 0.01620401 -0.05089948)
(0.04664891 0.02110691 -0.05059688)
(0.04352332 0.02655341 -0.05080978)
(0.0388512 0.03257673 -0.05107693)
(-0.03443045 0.03729432 -0.05101858)
(-0.02781869 0.04249283 -0.05098523)
(0.02487896 0.04417492 -0.05109853)
(-0.01483498 0.04847868 -0.05108052)
(-0.008352471 0.04993838 -0.05116416)
(0.01138128 0.0495136 -0.05098867)
(-0.05347514 0.0007246855 -0.04819605)
(-0.0534112 0.003613056 -0.04813314)
(-0.05327317 0.006438897 -0.04799109)
(-0.05300165 0.009373204 -0.04780676)
(0.05206613 0.01241596 -0.04814119)
(-0.05089948 0.01620401 -0.0482605)
(0.0493171 0.02110066 -0.04800252)
(0.04668715 0.02634483 -0.04804218)
(-0.0419822 0.03272942 -0.04843906)
(0.03789534 0.03739039 -0.04842726)
(0.03143862 0.04289709 -0.04848272)
(-0.02158989 0.04860016 -0.04849224)
(0.0183889 0.04989005 -0.04851854)
(-0.001551937 0.05340463 -0.04822553)
(0.004944144 0.05325296 -0.0481594)
(-0.05593216 0.0007135126 -0.04532102)
(-0.05593183 0.003564596 -0.04518068)
(-0.05573814 0.006514348 -0.0450937)
(0.05487674 0.009466388 -0.04562466)
(0.05463533 0.01235488 -0.04521715)
(-0.05345275 0.01636788 -0.04535289)
(0.05193089 0.02107249 -0.04517221)
(0.04938551 0.0263826 -0.04523893)
(-0.04546253 0.03237251 -0.04546253)
(-0.04115956 0.03755467 -0.04555436)
(-0.03504025 0.04317037 -0.0456876)
(-0.02800515 0.04820625 -0.04550222)
(0.02498683 0.04980112 -0.04557116)
(-0.01491355 0.05376399 -0.04545994)
(-0.008129264 0.05517309 -0.04550322)
(-0.001635654 0.05546788 -0.04584194)
(0.004876535 0.05535433 -0.0457492)
(0.01131361 0.05476831 -0.04530967)
(-0.05881457 0.0007152858 -0.04149992)
(-0.05877319 0.003582216 -0.04140015)
(-0.05875293 0.006476888 -0.04108173)
(0.05755748 0.00653227 -0.04274979)
(0.05781491 0.009499557 -0.04182041)
(0.05754307 0.01246313 -0.04140649)
(-0.05636605 0.01632865 -0.04167923)
(0.05489954 0.02128813 -0.04139395)
(0.05234282 0.02676865 -0.04152495)
(-0.04843906 0.03272942 -0.0419822)
(0.0497168 0.03203362 -0.04101018)
(-0.04555436 0.03755467 -0.04115956)
(0.04388339 0.03852348 -0.0420744)
(0.03889724 0.04381052 -0.04178743)
(0.03216462 0.04909612 -0.04163095)
(-0.02190192 0.05452517 -0.0415372)
(0.01846368 0.05568191 -0.04170342)
(-0.001557867 0.0588049 -0.04145277)
(0.004990369 0.05870577 -0.04131932)
(0.0628413 0.0007164959 -0.03509549)
(0.06277906 0.003597304 -0.03501851)
(-0.06162783 0.006573587 -0.03662997)
(0.0627564 0.006519581 -0.03464424)
(-0.06152179 0.009434711 -0.03617707)
(0.0625911 0.00948403 -0.03426482)
(-0.06157814 0.01254241 -0.03508893)
(-0.06129693 0.01631695 -0.03401509)
(0.06011605 0.01629844 -0.03608984)
(-0.05906004 0.02122646 -0.03523272)
(-0.05623213 0.02659082 -0.03623097)
(0.05743998 0.02646173 -0.03435419)
(-0.05383264 0.03227888 -0.03521947)
(-0.05101858 0.03729432 -0.03443045)
(0.04977049 0.03796719 -0.03550835)
(-0.0456876 0.04317037 -0.03504025)
(0.04394562 0.04411238 -0.03608485)
(0.03872654 0.04915771 -0.03551763)
(0.03187685 0.05406721 -0.03518927)
(-0.02181482 0.05886877 -0.03516423)
(0.01849253 0.05902569 -0.03680822)
(-0.008155615 0.06218474 -0.03529437)
(-0.001596291 0.06203175 -0.03647342)
(0.004846292 0.06199818 -0.03623947)
(0.01159336 0.06188036 -0.03485159)
(-0.0664373 0.0006979915 -0.02769893)
(0.06551445 0.0007185474 -0.02984602)
(-0.06650376 0.003649317 -0.02730047)
(0.06556524 0.003623482 -0.02950749)
(0.06573448 0.006586261 -0.02856526)
(0.06548724 0.009430014 -0.0283342)
(0.0651532 0.01254026 -0.02789976)
(-0.06413652 0.01625305 -0.02831931)
(0.0628296 0.02122045 -0.02796118)
(0.06040717 0.0267749 -0.02853188)
(0.05777115 0.03224166 -0.02833104)
(-0.05373061 0.03813926 -0.02895028)
(0.0549284 0.03722043 -0.02787087)
(-0.05098523 0.04249283 -0.02781869)
(0.04974459 0.04342308 -0.02861888)
(-0.04550222 0.04820625 -0.02800515)
(0.04377891 0.04923734 -0.02894168)
(0.03820618 0.05394504 -0.02841013)
(-0.02901457 0.05910373 -0.02901457)
(-0.02164483 0.06226111 -0.02888001)
(0.02454773 0.06171843 -0.02768556)
(-0.01483224 0.06467665 -0.02784043)
(0.01153902 0.06502948 -0.02859087)
(0.06863594 0.0007151266 -0.02171731)
(0.06855625 0.003587077 -0.02166016)
(0.06825366 0.00656671 -0.02187017)
(0.06800738 0.009407387 -0.0215042)
(0.06771349 0.01247589 -0.02087444)
(-0.06674451 0.01623546 -0.02144714)
(0.06534484 0.02122529 -0.02143079)
(0.06318169 0.02678771 -0.02168224)
(0.06046916 0.0324332 -0.02170991)
(0.05759665 0.03738008 -0.02156527)
(-0.05365463 0.04289804 -0.0214614)
(0.05244652 0.04428011 -0.02167766)
(-0.04849224 0.04860016 -0.02158989)
(0.04712573 0.0498806 -0.02173309)
(-0.0415372 0.05452517 -0.02190192)
(-0.03516423 0.05886877 -0.02181482)
(-0.02888001 0.06226111 -0.02164483)
(-0.0217172 0.06508018 -0.0217172)
(-0.01463109 0.06724849 -0.02100183)
(-0.00831713 0.06815243 -0.02153352)
(0.0113988 0.06767855 -0.02162421)
(0.07044888 0.0007178315 -0.01472397)
(0.0703834 0.003593514 -0.01456278)
(0.06984598 0.006258922 -0.01536421)
(-0.06964292 0.009385347 -0.01477113)
(-0.06913621 0.01239637 -0.01481093)
(0.06856023 0.01626085 -0.01461346)
(-0.06721553 0.02106598 -0.01479769)
(0.06533194 0.02633337 -0.01473884)
(0.06281832 0.03184054 -0.01479774)
(-0.05891778 0.03858147 -0.01488244)
(0.06000205 0.03692394 -0.01467796)
(-0.05608072 0.04261969 -0.01475388)
(0.05489937 0.04410779 -0.01489056)
(-0.05108052 0.04847868 -0.01483498)
(0.04979384 0.04977889 -0.01495935)
(-0.04545994 0.05376399 -0.01491355)
(0.04370517 0.0552264 -0.01484342)
(0.03856615 0.05885591 -0.01506269)
(0.03318712 0.06209443 -0.01496124)
(-0.02784043 0.06467665 -0.01483224)
(-0.02100183 0.06724849 -0.01463109)
(0.01798074 0.06810609 -0.01477294)
(-0.007466432 0.07016501 -0.01341994)
(-0.001594158 0.07036056 -0.01481158)
(0.004696929 0.07017 -0.01467909)
(0.07085107 0.006480848 -0.008469312)
(0.0705782 0.009291308 -0.007759839)
(0.06998483 0.01229228 -0.008205549)
(-0.06946149 0.01598346 -0.007993702)
(0.0683586 0.02085388 -0.007979586)
(-0.0665194 0.02617633 -0.008138158)
(-0.06406049 0.03175102 -0.008166031)
(-0.06124678 0.0368994 -0.008119575)
(0.06018706 0.03858522 -0.008356401)
(-0.05632189 0.04406449 -0.008196272)
(0.05747075 0.042527 -0.008242367)
(-0.05116416 0.04993838 -0.008352471)
(0.05242268 0.04864193 -0.00810874)
(-0.04550322 0.05517309 -0.008129264)
(0.04705325 0.05384724 -0.008169104)
(0.04030016 0.05903374 -0.008481621)
(-0.03529437 0.06218474 -0.008155615)
(0.030875 0.06448493 -0.008138479)
(-0.02153352 0.06815243 -0.00831713)
(0.02430424 0.06723296 -0.008117349)
(-0.01412602 0.06979361 -0.009330654)
(-0.008161893 0.0707626 -0.008161893)
(0.01095284 0.07049065 -0.007839119)
(-0.07115905 0.009200175 -0.001663872)
(0.07076876 0.01236364 -0.001565738)
(0.07001595 0.01595895 -0.00146958)
(-0.06866361 0.0214305 -0.001240484)
(-0.0668435 0.02661572 -0.001579179)
(-0.06434251 0.03219815 -0.001583809)
(-0.06145651 0.03741854 -0.001557513)
(0.05762396 0.04308399 -0.00161146)
(-0.05356377 0.04804657 -0.001547087)
(0.05225374 0.04948076 -0.001545139)
(-0.04822553 0.05340463 -0.001551937)
(-0.04584194 0.05546788 -0.001635654)
(0.04686104 0.05461284 -0.001595976)
(-0.04145277 0.0588049 -0.001557867)
(-0.03647342 0.06203175 -0.001596291)
(0.0314881 0.06468843 -0.001559284)
(0.02479004 0.06753068 -0.001559578)
(-0.01481158 0.07036056 -0.001594158)
(0.01143527 0.07095641 -0.001563291)
(0.07081711 0.009404185 0.004932607)
(0.07044446 0.01229107 0.004575936)
(0.06978877 0.0157771 0.004667843)
(0.06854196 0.02109191 0.005028781)
(-0.06673483 0.02650136 0.004677809)
(-0.06425181 0.03207866 0.004693657)
(-0.06134396 0.03734002 0.004687107)
(-0.05639124 0.04443624 0.005179227)
(0.05756848 0.04292422 0.004768684)
(-0.05347692 0.047911 0.004926297)
(0.0521878 0.04933832 0.004787412)
(-0.0481594 0.05325296 0.004944144)
(-0.0457492 0.05535433 0.004876535)
(0.04683457 0.05444095 0.004855495)
(-0.04131932 0.05870577 0.004990369)
(-0.03623947 0.06199818 0.004846292)
(0.03140352 0.06457632 0.004694049)
(0.02454595 0.06746869 0.00469476)
(-0.01467909 0.07017 0.004696929)
(0.01116491 0.07074589 0.004743538)
(0.07105829 0.0007179489 0.01153178)
(0.07079904 0.003570445 0.01122747)
(0.0704996 0.006463535 0.01118257)
(0.07017896 0.009336531 0.01141325)
(-0.06955017 0.01245001 0.01163288)
(-0.0691005 0.01612658 0.01125822)
(0.06787339 0.0209483 0.01135353)
(0.06572127 0.02698965 0.01149567)
(0.0631762 0.03249789 0.01152152)
(0.06026818 0.03764051 0.01143581)
(-0.05639263 0.04322302 0.01146583)
(-0.05098867 0.0495136 0.01138128)
(0.05227948 0.04810133 0.0115249)
(-0.04530967 0.05476831 0.01131361)
(0.04406376 0.05567895 0.01180287)
(0.04683562 0.05341819 0.01151456)
(0.03977571 0.05888016 0.0114738)
(-0.03485159 0.06188036 0.01159336)
(-0.02859087 0.06502948 0.01153902)
(-0.02162421 0.06767855 0.0113988)
(-0.007839119 0.07049065 0.01095284)
(-0.001563291 0.07095641 0.01143527)
(0.004743538 0.07074589 0.01116491)
(0.01130281 0.06998182 0.01130281)
(-0.06951081 0.0007204756 0.0186522)
(-0.06945109 0.003604222 0.01851764)
(-0.06923436 0.006485373 0.01809847)
(-0.06901495 0.009366541 0.01782969)
(0.06842569 0.01254926 0.01811097)
(0.06783056 0.01624014 0.01770246)
(-0.06646867 0.02100284 0.01789132)
(-0.06429711 0.02668128 0.01826006)
(-0.06170881 0.03217368 0.01833725)
(-0.05884361 0.03726022 0.01812668)
(-0.05371642 0.04427302 0.0183222)
(0.05490145 0.04285575 0.0181326)
(-0.04851854 0.04989005 0.0183889)
(0.04983675 0.04860719 0.01825269)
(-0.04170342 0.05568191 0.01846368)
(0.04370219 0.05416711 0.01829558)
(-0.03680822 0.05902569 0.01849253)
(0.03155355 0.06202658 0.01831433)
(0.02497393 0.06493689 0.01838367)
(-0.01477294 0.06810609 0.01798074)
(0.01792547 0.06734591 0.01792547)
(0.06766422 0.0006935585 0.02453608)
(0.06792459 0.003364209 0.02361772)
(-0.06705607 0.006621443 0.02529922)
(-0.06682664 0.009450078 0.02500038)
(-0.06650914 0.01240572 0.02454436)
(0.06548267 0.01625321 0.02504722)
(-0.06415651 0.02127557 0.02472158)
(-0.06188989 0.0266273 0.02529486)
(-0.05918761 0.03233385 0.02511655)
(-0.05626842 0.03736625 0.02485001)
(-0.05109853 0.04417492 0.02487896)
(0.05234951 0.04272175 0.02477705)
(-0.04557116 0.04980112 0.02498683)
(0.04704286 0.04848271 0.02482062)
(0.03914836 0.05487009 0.0251994)
(0.03221881 0.05915781 0.0253184)
(-0.02768556 0.06171843 0.02454773)
(0.01838367 0.06493689 0.02497393)
(-0.008117349 0.06723296 0.02430424)
(-0.001559578 0.06753068 0.02479004)
(0.00469476 0.06746869 0.02454595)
(-0.06442474 0.0007267731 0.03209471)
(-0.06441195 0.003631862 0.03191015)
(-0.06427434 0.006524555 0.0317283)
(-0.06400672 0.009395068 0.03154799)
(-0.0638765 0.01256314 0.03071031)
(0.0628319 0.01255923 0.03281779)
(0.0626913 0.01636944 0.03133879)
(-0.06141786 0.02117213 0.03096823)
(0.06032087 0.0213504 0.0329776)
(-0.05896575 0.02669548 0.03146959)
(-0.05628882 0.03205548 0.03136457)
(0.05505394 0.03234911 0.03323654)
(0.05250298 0.03768795 0.03167064)
(-0.04848272 0.04289709 0.03143862)
(0.04712975 0.04371333 0.0323652)
(-0.04163095 0.04909612 0.03216462)
(-0.03518927 0.05406721 0.03187685)
(0.0253184 0.05915781 0.03221881)
(-0.01496124 0.06209443 0.03318712)
(0.01831433 0.06202658 0.03155355)
(-0.008138479 0.06448493 0.030875)
(-0.001559284 0.06468843 0.0314881)
(0.004694049 0.06457632 0.03140352)
(-0.06123531 0.0007058013 0.03783579)
(0.06004868 0.0007147366 0.03971284)
(-0.06125138 0.003654552 0.03763871)
(0.06011126 0.00359914 0.03945205)
(0.06039479 0.006537243 0.03860982)
(-0.05902586 0.009609134 0.04008423)
(0.06021337 0.009432022 0.03829022)
(-0.05888616 0.01251592 0.03947711)
(0.06003766 0.01258927 0.03766331)
(-0.05885108 0.01641982 0.0380433)
(0.05768598 0.01649899 0.0397798)
(-0.05618094 0.02130605 0.03964379)
(0.05741018 0.02120719 0.03786973)
(-0.05366522 0.02673907 0.03983495)
(0.05492619 0.026571 0.03817243)
(-0.05107693 0.03257673 0.0388512)
(0.05231938 0.03187143 0.03776354)
(-0.04842726 0.03739039 0.03789534)
(0.04708557 0.03804305 0.03892481)
(-0.04178743 0.04381052 0.03889724)
(-0.03551763 0.04915771 0.03872654)
(-0.02841013 0.05394504 0.03820618)
(0.0251994 0.05487009 0.03914836)
(-0.01506269 0.05885591 0.03856615)
(-0.008481621 0.05903374 0.04030016)
(0.0114738 0.05888016 0.03977571)
(0.05726447 0.0007073357 0.04362143)
(0.05724119 0.003633029 0.04350362)
(-0.05673233 0.006527273 0.04383862)
(-0.05626082 0.009440256 0.04390409)
(-0.05597941 0.01250326 0.04349798)
(0.05478339 0.01634345 0.04374073)
(-0.05335905 0.02114507 0.0434337)
(-0.05080978 0.02655341 0.04352332)
(0.04969157 0.02807956 0.04387613)
(0.04702624 0.03246544 0.04377065)
(-0.0420744 0.03852348 0.04388339)
(-0.03608485 0.04411238 0.04394562)
(-0.02894168 0.04923734 0.04377891)
(-0.01484342 0.0552264 0.04370517)
(0.01180287 0.05567895 0.04406376)
(0.01829558 0.05416711 0.04370219)
(0.05470885 0.0007226 0.04679092)
(0.05465028 0.00359436 0.0467229)
(0.05454608 0.006402553 0.0465433)
(-0.05388927 0.009500757 0.04678595)
(-0.05331939 0.01237511 0.04675971)
(0.05220886 0.01621632 0.04683474)
(-0.05059688 0.02110691 0.04664891)
(-0.04804218 0.02634483 0.04668715)
(0.04377065 0.03246544 0.04702624)
(0.03892481 0.03804305 0.04708557)
(0.0323652 0.04371333 0.04712975)
(-0.02173309 0.0498806 0.04712573)
(0.02482062 0.04848271 0.04704286)
(-0.008169104 0.05384724 0.04705325)
(-0.001595976 0.05461284 0.04686104)
(0.004855495 0.05444095 0.04683457)
(0.01151456 0.05341819 0.04683562)
(0.0522073 0.000725611 0.04956656)
(0.05214326 0.003619561 0.0495034)
(0.05200137 0.006459873 0.04936361)
(0.05175939 0.009385561 0.04914701)
(-0.05079384 0.01242058 0.0494803)
(0.04959685 0.01620843 0.04959685)
(-0.04800252 0.02110066 0.0493171)
(-0.04523893 0.0263826 0.04938551)
(0.04387613 0.02807956 0.04969157)
(-0.04101018 0.03203362 0.0497168)
(-0.03550835 0.03796719 0.04977049)
(-0.02861888 0.04342308 0.04974459)
(-0.01495935 0.04977889 0.04979384)
(0.01825269 0.04860719 0.04983675)
(0.04956656 0.000725611 0.0522073)
(0.0495034 0.003619561 0.05214326)
(0.04936361 0.006459873 0.05200137)
(0.04914701 0.009385561 0.05175939)
(-0.04814119 0.01241596 0.05206613)
(0.04683474 0.01621632 0.05220886)
(-0.04517221 0.02107249 0.05193089)
(-0.04152495 0.02676865 0.05234282)
(0.03776354 0.03187143 0.05231938)
(0.03167064 0.03768795 0.05250298)
(-0.02167766 0.04428011 0.05244652)
(0.02477705 0.04272175 0.05234951)
(-0.00810874 0.04864193 0.05242268)
(-0.001545139 0.04948076 0.05225374)
(0.004787412 0.04933832 0.0521878)
(0.0115249 0.04810133 0.05227948)
(0.04679092 0.0007226 0.05470885)
(0.0467229 0.00359436 0.05465028)
(0.0465433 0.006402553 0.05454608)
(-0.04562466 0.009466388 0.05487674)
(-0.04521715 0.01235488 0.05463533)
(0.04374073 0.01634345 0.05478339)
(-0.04139395 0.02128813 0.05489954)
(0.03817243 0.026571 0.05492619)
(0.03323654 0.03234911 0.05505394)
(-0.02787087 0.03722043 0.0549284)
(-0.01489056 0.04410779 0.05489937)
(0.0181326 0.04285575 0.05490145)
(0.04362143 0.0007073357 0.05726447)
(0.04350362 0.003633029 0.05724119)
(-0.04274979 0.00653227 0.05755748)
(-0.04182041 0.009499557 0.05781491)
(-0.04140649 0.01246313 0.05754307)
(0.0397798 0.01649899 0.05768598)
(0.03786973 0.02120719 0.05741018)
(-0.03435419 0.02646173 0.05743998)
(-0.02833104 0.03224166 0.05777115)
(-0.02156527 0.03738008 0.05759665)
(-0.008242367 0.042527 0.05747075)
(-0.00161146 0.04308399 0.05762396)
(0.004768684 0.04292422 0.05756848)
(0.03971284 0.0007147366 0.06004868)
(0.03945205 0.00359914 0.06011126)
(0.03860982 0.006537243 0.06039479)
(0.03829022 0.009432022 0.06021337)
(0.03766331 0.01258927 0.06003766)
(-0.03608984 0.01629844 0.06011605)
(0.0329776 0.0213504 0.06032087)
(-0.02853188 0.0267749 0.06040717)
(-0.02170991 0.0324332 0.06046916)
(-0.01467796 0.03692394 0.06000205)
(-0.008356401 0.03858522 0.06018706)
(0.01143581 0.03764051 0.06026818)
(-0.03509549 0.0007164959 0.0628413)
(-0.03501851 0.003597304 0.06277906)
(-0.03464424 0.006519581 0.0627564)
(-0.03426482 0.00948403 0.0625911)
(0.03281779 0.01255923 0.0628319)
(0.03133879 0.01636944 0.0626913)
(-0.02796118 0.02122045 0.0628296)
(-0.02168224 0.02678771 0.06318169)
(-0.01479774 0.03184054 0.06281832)
(0.01152152 0.03249789 0.0631762)
(-0.02984602 0.0007185474 0.06551445)
(-0.02950749 0.003623482 0.06556524)
(-0.02856526 0.006586261 0.06573448)
(-0.0283342 0.009430014 0.06548724)
(-0.02789976 0.01254026 0.0651532)
(0.02504722 0.01625321 0.06548267)
(-0.02143079 0.02122529 0.06534484)
(-0.01473884 0.02633337 0.06533194)
(0.01149567 0.02698965 0.06572127)
(-0.02171731 0.0007151266 0.06863594)
(0.02453608 0.0006935585 0.06766422)
(-0.02166016 0.003587077 0.06855625)
(0.02361772 0.003364209 0.06792459)
(-0.02187017 0.00656671 0.06825366)
(-0.0215042 0.009407387 0.06800738)
(-0.02087444 0.01247589 0.06771349)
(0.01811097 0.01254926 0.06842569)
(-0.01461346 0.01626085 0.06856023)
(0.01770246 0.01624014 0.06783056)
(-0.007979586 0.02085388 0.0683586)
(0.005028781 0.02109191 0.06854196)
(0.01135353 0.0209483 0.06787339)
(-0.01472397 0.0007178315 0.07044888)
(0.01153178 0.0007179489 0.07105829)
(-0.01456278 0.003593514 0.0703834)
(0.01122747 0.003570445 0.07079904)
(-0.01536421 0.006258922 0.06984598)
(-0.008469312 0.006480848 0.07085107)
(0.01118257 0.006463535 0.0704996)
(-0.007759839 0.009291308 0.0705782)
(0.004932607 0.009404185 0.07081711)
(0.01141325 0.009336531 0.07017896)
(-0.008205549 0.01229228 0.06998483)
(-0.001565738 0.01236364 0.07076876)
(0.004575936 0.01229107 0.07044446)
(-0.00146958 0.01595895 0.07001595)
(0.004667843 0.0157771 0.06978877)
(0.008022011 0.002083985 -0.07132744)
(0.01472397 0.0007178315 -0.07044888)
(0.01465613 0.00216025 -0.0704278)
(0.005079764 0.00503688 -0.07137095)
(0.01445539 0.004977287 -0.07021025)
(0.001663872 0.009200175 -0.07115905)
(0.01230488 0.01060216 -0.06976273)
(-0.007549954 0.01463945 -0.06962959)
(-0.004667843 0.0157771 -0.06978877)
(-0.00146958 0.01595895 -0.07001595)
(0.00146958 0.01595895 -0.07001595)
(0.004667843 0.0157771 -0.06978877)
(-0.02433592 0.004232552 -0.06761998)
(0.01838557 0.005034012 -0.06933955)
(-0.01753823 0.01090317 -0.06879796)
(0.0215042 0.009407387 -0.06800738)
(0.02118626 0.01083021 -0.06787678)
(0.02087444 0.01247589 -0.06771349)
(0.0182906 0.01422831 -0.06810153)
(-0.01770246 0.01624014 -0.06783056)
(-0.01464528 0.01855952 -0.06797122)
(-0.00474856 0.0186048 -0.06925464)
(0.01464528 0.01855952 -0.06797122)
(0.01770246 0.01624014 -0.06783056)
(-0.004645301 0.02346002 -0.06784095)
(0.004645301 0.02346002 -0.06784095)
(0.009352095 0.0231989 -0.06746629)
(0.02984602 0.0007185474 -0.06551445)
(0.02972931 0.002152957 -0.06553151)
(0.02950749 0.003623482 -0.06556524)
(0.02868489 0.005145076 -0.06581486)
(0.02481819 0.01088283 -0.06667465)
(0.02637872 0.0144073 -0.06541151)
(-0.02429576 0.0185486 -0.06515534)
(0.02087787 0.01848984 -0.06634271)
(-0.01789132 0.02100284 -0.06646867)
(-0.02143079 0.02122529 -0.06534484)
(-0.01818783 0.02388692 -0.06540755)
(0.01464685 0.02346972 -0.06643336)
(0.02143079 0.02122529 -0.06534484)
(0.01818783 0.02388692 -0.06540755)
(-0.01473884 0.02633337 -0.06533194)
(-0.01149567 0.02698965 -0.06572127)
(0.001579179 0.02661572 -0.0668435)
(-0.001583586 0.02945155 -0.06564495)
(0.001583586 0.02945155 -0.06564495)
(0.004692713 0.02933337 -0.06555046)
(0.008161663 0.02900584 -0.06534961)
(0.03509549 0.0007164959 -0.0628413)
(0.03502935 0.002145346 -0.06284098)
(0.03162748 0.007954468 -0.06416367)
(0.03464424 0.006519581 -0.0627564)
(0.03448395 0.007928266 -0.0626838)
(0.03326107 0.01108446 -0.06287975)
(-0.03071031 0.01256314 -0.0638765)
(0.03281779 0.01255923 -0.0628319)
(0.0317838 0.01426946 -0.06298437)
(0.02965544 0.01870716 -0.06286973)
(0.03133879 0.01636944 -0.0626913)
(-0.02472158 0.02127557 -0.06415651)
(0.02796118 0.02122045 -0.0628296)
(-0.01833972 0.0294544 -0.06305093)
(0.0147792 0.02911974 -0.06412909)
(0.02168224 0.02678771 -0.06318169)
(-0.01152152 0.03249789 -0.0631762)
(-0.008154091 0.03440225 -0.06267875)
(-0.004685683 0.03474495 -0.06285107)
(0.001583809 0.03219815 -0.06434251)
(-0.001581018 0.03487053 -0.06293474)
(0.001581018 0.03487053 -0.06293474)
(0.008166031 0.03175102 -0.06406049)
(0.004685683 0.03474495 -0.06285107)
(0.01152152 0.03249789 -0.0631762)
(0.0377573 0.002110102 -0.06124786)
(0.03971284 0.0007147366 -0.06004868)
(0.03962433 0.002138758 -0.060069)
(0.03681751 0.005228891 -0.06164611)
(0.03945205 0.00359914 -0.06011126)
(0.03645366 0.00797499 -0.06156655)
(0.03796144 0.01091839 -0.06017401)
(-0.03766331 0.01258927 -0.06003766)
(0.03661554 0.01442652 -0.06028263)
(0.03766331 0.01258927 -0.06003766)
(0.03608984 0.01629844 -0.06011605)
(0.03473031 0.01874162 -0.06018976)
(0.0329776 0.0213504 -0.06032087)
(0.03132924 0.02390714 -0.06022256)
(0.02853188 0.0267749 -0.06040717)
(0.02539054 0.02981641 -0.06037196)
(-0.01833725 0.03217368 -0.06170881)
(-0.02170991 0.0324332 -0.06046916)
(0.01477593 0.03445096 -0.06143239)
(0.02170991 0.0324332 -0.06046916)
(0.01827118 0.03476748 -0.06030785)
(-0.008356401 0.03858522 -0.06018706)
(-0.004909116 0.03956824 -0.05991451)
(0.001557513 0.03741854 -0.06145651)
(0.008356401 0.03858522 -0.06018706)
(0.004909116 0.03956824 -0.05991451)
(0.01143581 0.03764051 -0.06026818)
(0.01467796 0.03692394 -0.06000205)
(0.04362143 0.0007073357 -0.05726447)
(0.04128402 0.005029004 -0.05874941)
(0.04291152 0.005188416 -0.05757508)
(0.04089984 0.008027327 -0.0586916)
(0.04274979 0.00653227 -0.05755748)
(0.0425188 0.007972314 -0.05754552)
(0.03981785 0.01098218 -0.05896515)
(0.04182041 0.009499557 -0.05781491)
(0.04159303 0.01095093 -0.05771862)
(-0.0380433 0.01641982 -0.05885108)
(0.03653264 0.01888425 -0.05908255)
(0.0397798 0.01649899 -0.05768598)
(0.03863824 0.01871926 -0.05776658)
(0.0342 0.02376902 -0.05869199)
(0.03615843 0.02391398 -0.0574666)
(0.03786973 0.02120719 -0.05741018)
(-0.03435419 0.02646173 -0.05743998)
(-0.03145227 0.02943585 -0.05765594)
(0.03435419 0.02646173 -0.05743998)
(0.03145227 0.02943585 -0.05765594)
(0.02169123 0.03492907 -0.05906824)
(0.02833104 0.03224166 -0.05777115)
(-0.01151806 0.03992975 -0.05875316)
(-0.01477742 0.04044035 -0.05767236)
(-0.01169883 0.04145823 -0.05766682)
(-0.004777989 0.04116854 -0.05884891)
(0.001571012 0.04137044 -0.05888197)
(0.01488244 0.03858147 -0.05891778)
(0.01169883 0.04145823 -0.05766682)
(0.01477742 0.04044035 -0.05767236)
(0.02156527 0.03738008 -0.05759665)
(0.01797898 0.03960493 -0.0573346)
(-0.00161146 0.04308399 -0.05762396)
(0.00161146 0.04308399 -0.05762396)
(0.008242367 0.042527 -0.05747075)
(0.04528715 0.002133809 -0.05592)
(0.04511254 0.004967161 -0.05587993)
(0.0467229 0.00359436 -0.05465028)
(0.04666006 0.00500066 -0.05459347)
(0.0450937 0.006514348 -0.05573814)
(0.04404493 0.008007344 -0.05637523)
(0.0465433 0.006402553 -0.05454608)
(0.04646674 0.007923245 -0.05441186)
(0.04373473 0.01086456 -0.05613591)
(0.04562466 0.009466388 -0.05487674)
(0.04547034 0.01088585 -0.05473945)
(0.04501536 0.01409006 -0.0543797)
(-0.04374073 0.01634345 -0.05478339)
(0.04106618 0.0186511 -0.05608988)
(0.04261635 0.01870466 -0.05492042)
(0.03811713 0.02387993 -0.0561866)
(0.04139395 0.02128813 -0.05489954)
(0.03982402 0.02401598 -0.05494617)
(0.03427444 0.02908367 -0.05620048)
(0.0355274 0.02982113 -0.05502659)
(0.02814583 0.03482768 -0.05634502)
(0.03323654 0.03234911 -0.05505394)
(0.03108349 0.0345459 -0.05494955)
(-0.02485001 0.03736625 -0.05626842)
(-0.01817396 0.04122447 -0.05613775)
(-0.02146755 0.04129251 -0.05491342)
(0.0212972 0.03974219 -0.0560939)
(0.02146755 0.04129251 -0.05491342)
(0.02443118 0.03966869 -0.05484995)
(-0.0181326 0.04285575 -0.05490145)
(-0.01489056 0.04410779 -0.05489937)
(-0.005179227 0.04443624 -0.05639124)
(-0.008100894 0.04572812 -0.05498007)
(0.001798048 0.04511501 -0.056046)
(-0.001617393 0.04654385 -0.05488208)
(0.001617393 0.04654385 -0.05488208)
(0.008196272 0.04406449 -0.05632189)
(0.01489056 0.04410779 -0.05489937)
(0.01146388 0.04522004 -0.05480287)
(0.0181326 0.04285575 -0.05490145)
(0.04956656 0.000725611 -0.0522073)
(0.04807174 0.005039889 -0.05335097)
(0.04786484 0.007827868 -0.05320005)
(0.04694192 0.01092641 -0.05347726)
(0.04832399 0.01097297 -0.05222287)
(0.04914701 0.009385561 -0.05175939)
(0.04788502 0.01420986 -0.05183913)
(-0.0434337 0.02114507 -0.05335905)
(-0.04517221 0.02107249 -0.05193089)
(0.04354089 0.02386775 -0.05211161)
(-0.0380051 0.02928997 -0.05364257)
(0.03972936 0.02937737 -0.05234849)
(-0.03776354 0.03187143 -0.05231938)
(-0.03230015 0.03529571 -0.05376034)
(0.03776354 0.03187143 -0.05231938)
(-0.03167064 0.03768795 -0.05250298)
(0.02534052 0.0406821 -0.05368368)
(0.03167064 0.03768795 -0.05250298)
(-0.02477705 0.04272175 -0.05234951)
(-0.0183222 0.04427302 -0.05371642)
(-0.02167766 0.04428011 -0.05244652)
(-0.0113786 0.04671574 -0.05356482)
(-0.01494938 0.04701112 -0.05241785)
(0.008361716 0.04714589 -0.05374703)
(0.01480245 0.04564596 -0.05363604)
(0.01494938 0.04701112 -0.05241785)
(0.0214614 0.04289804 -0.05365463)
(0.02167766 0.04428011 -0.05244652)
(-0.004787412 0.04933832 -0.0521878)
(-0.001545139 0.04948076 -0.05225374)
(0.001545139 0.04948076 -0.05225374)
(0.004787412 0.04933832 -0.0521878)
(0.00810874 0.04864193 -0.05242268)
(0.0115249 0.04810133 -0.05227948)
(0.05077933 0.005053931 -0.05077933)
(0.05214326 0.003619561 -0.0495034)
(0.0520819 0.005052269 -0.04944257)
(0.05190194 0.00782507 -0.04927103)
(0.0496516 0.01097104 -0.05096234)
(0.05175939 0.009385561 -0.04914701)
(0.05055395 0.01421905 -0.04923728)
(-0.04664891 0.02110691 -0.05059688)
(-0.04800252 0.02110066 -0.0493171)
(-0.04669436 0.02376654 -0.04936046)
(0.04524066 0.02376312 -0.05069704)
(0.04800252 0.02110066 -0.0493171)
(0.04669436 0.02376654 -0.04936046)
(-0.04387613 0.02807956 -0.04969157)
(0.04139854 0.029409 -0.05100828)
(0.04274936 0.0297342 -0.04970643)
(0.04387613 0.02807956 -0.04969157)
(0.04101018 0.03203362 -0.0497168)
(0.031251 0.03999704 -0.05101881)
(0.03550835 0.03796719 -0.04977049)
(0.03221386 0.04082094 -0.04975565)
(-0.02487896 0.04417492 -0.05109853)
(-0.01838302 0.04714741 -0.05119)
(-0.02171622 0.04714409 -0.04987132)
(0.02157404 0.04581277 -0.05114044)
(0.02171622 0.04714409 -0.04987132)
(0.02781869 0.04249283 -0.05098523)
(0.02861888 0.04342308 -0.04974459)
(0.02478529 0.04569968 -0.0497694)
(-0.01138128 0.0495136 -0.05098867)
(-0.01495935 0.04977889 -0.04979384)
(-0.004789794 0.05202026 -0.0495149)
(0.001543413 0.05083667 -0.05092453)
(-0.001546241 0.05216336 -0.04957612)
(0.001546241 0.05216336 -0.04957612)
(0.008352471 0.04993838 -0.05116416)
(0.004789794 0.05202026 -0.0495149)
(0.01483498 0.04847868 -0.05108052)
(0.01495935 0.04977889 -0.04979384)
(0.05345236 0.002172019 -0.048174)
(0.05468844 0.002164372 -0.04676635)
(0.05459347 0.00500066 -0.04666006)
(0.05441186 0.007923245 -0.04646674)
(0.05388927 0.009500757 -0.04678595)