
6433
(
(-0.0103564 0 -0.071263)
(-0.0102662 0.00142409 -0.0712463)
(-0.0058048 0.0014098 -0.0717468)
(-0.00576718 0 -0.0717812)
(-0.00810811 0.00272545 -0.0712266)
(-0.0101556 0.00280056 -0.0708168)
(-0.00964274 0.00424832 -0.0707968)
(-0.0079918 0.00364297 -0.0711688)
(-0.00267887 0.00829193 -0.0711501)
(-0.00382661 0.00885917 -0.0708169)
(-0.0030806 0.010021 -0.0711912)
(3.2008e-12 0.0102641 -0.0712577)
(3.46838e-10 0.00822007 -0.0712677)
(0.0167324 0 -0.0700398)
(0.0166526 0.0014454 -0.070033)
(0.0205666 0.00143871 -0.068985)
(0.0206632 0 -0.0689838)
(0.0165909 0.00288683 -0.0700036)
(0.0165131 0.00431646 -0.0699463)
(0.0204249 0.00433443 -0.0689063)
(0.0205205 0.00288134 -0.0689537)
(0.0163524 0.0057015 -0.0696513)
(0.0158578 0.00716095 -0.0696345)
(0.0199891 0.00725104 -0.0687889)
(0.0202117 0.0057954 -0.0688619)
(-0.0160459 0.00868818 -0.0696062)
(-0.0158634 0.0100556 -0.0693458)
(-0.0134484 0.0100439 -0.069605)
(-0.0137177 0.00874149 -0.0700194)
(0.0160459 0.00868818 -0.0696062)
(0.0158634 0.0100556 -0.0693458)
(0.0195823 0.0100537 -0.0684384)
(0.0198198 0.00867577 -0.0686697)
(-0.0158367 0.0115426 -0.0691282)
(-0.0170579 0.0120356 -0.0686574)
(-0.0167838 0.0132773 -0.0686731)
(-0.012747 0.0131709 -0.0695209)
(-0.0127926 0.0115075 -0.0695187)
(0.0105058 0.0119541 -0.0696736)
(0.0102141 0.0131328 -0.0694987)
(0.012747 0.0131709 -0.0695209)
(0.0127926 0.0115075 -0.0695187)
(-0.00935083 0.0147682 -0.0693395)
(-0.00932647 0.0169076 -0.0693327)
(-0.00607113 0.0168229 -0.0696939)
(-0.00698223 0.0152224 -0.0694958)
(0.00935083 0.0147682 -0.0693395)
(0.00932647 0.0169076 -0.0693327)
(0.0104358 0.0177628 -0.0689577)
(0.0128272 0.0171997 -0.0687227)
(0.0136761 0.0155255 -0.0688952)
(0.0124996 0.0148778 -0.0692788)
(-2.95951e-14 0.0207652 -0.0689131)
(-0.00184306 0.0207268 -0.068895)
(-0.00311416 0.0218429 -0.0684756)
(-2.9401e-14 0.022151 -0.0684513)
(-0.0262116 0.0013773 -0.0670452)
(-0.0262997 0 -0.0670331)
(-0.0291801 0 -0.0658299)
(-0.0290771 0.00141673 -0.0658523)
(-0.0258376 0.00425959 -0.0670693)
(-0.0260897 0.00272573 -0.0670517)
(-0.028922 0.00282173 -0.0658753)
(-0.0284822 0.00430909 -0.0659863)
(-0.0270515 0.00479086 -0.0665525)
(0.0237735 0.00591024 -0.0677042)
(0.0235507 0.00731275 -0.0676452)
(0.0268915 0.00732184 -0.0663869)
(0.0269869 0.00592316 -0.0664876)
(0.0233832 0.008734 -0.0675346)
(0.0232068 0.0101611 -0.0673951)
(0.0266376 0.0101625 -0.0661146)
(0.026777 0.00873787 -0.0662618)
(0.02296 0.0115955 -0.0672452)
(0.0223629 0.0131936 -0.0671523)
(0.0244918 0.013154 -0.0664246)
(0.0263755 0.0132161 -0.0656761)
(0.0264669 0.0116021 -0.0659459)
(-0.0191796 0.0171723 -0.0672403)
(-0.0201123 0.0151675 -0.067432)
(-0.0224751 0.0151293 -0.0667057)
(-0.0234988 0.0156745 -0.0661981)
(-0.0230885 0.0172587 -0.0659768)
(-0.0161741 0.0196559 -0.0673502)
(-0.0160029 0.0219818 -0.0666688)
(-0.0129202 0.022088 -0.0672981)
(-0.0138348 0.0203536 -0.0676603)
(0.0160029 0.0219818 -0.0666688)
(0.016952 0.0228408 -0.0661432)
(0.0193338 0.0221343 -0.0657288)
(0.0201772 0.0202161 -0.0660922)
(0.0191108 0.0194879 -0.0666261)
(0.0161741 0.0196559 -0.0673502)
(-0.00618577 0.0249726 -0.0672039)
(-0.00947813 0.0245866 -0.0669722)
(-0.0106016 0.025709 -0.0664075)
(-0.00951801 0.0274622 -0.0658727)
(-0.00621439 0.0278543 -0.0661021)
(-0.00315343 0.025142 -0.0673912)
(-0.00316536 0.0280317 -0.0662434)
(-8.49448e-15 0.0280901 -0.0662943)
(-2.46217e-14 0.0251954 -0.0674465)
(0.00316536 0.0280317 -0.0662434)
(0.00621439 0.0278543 -0.0661021)
(0.00618577 0.0249726 -0.0672039)
(0.00315343 0.025142 -0.0673912)
(0.0306037 0 -0.0651818)
(0.0305115 0.00145294 -0.0651992)
(0.0335949 0.00145171 -0.0636653)
(0.0336698 0 -0.0636522)
(0.0303919 0.00290686 -0.0652064)
(0.0302672 0.004365 -0.0651831)
(0.0334568 0.00434784 -0.0636061)
(0.0335332 0.00290071 -0.0636484)
(0.0302 0.00582162 -0.0651004)
(0.0301422 0.00727358 -0.0649811)
(0.0332344 0.00722103 -0.0634613)
(0.033353 0.00579151 -0.0635455)
(0.0331116 0.00862338 -0.0633503)
(0.0300421 0.0087035 -0.0648515)
(0.0298877 0.0101187 -0.0647174)
(0.0330967 0.0101133 -0.0631374)
(0.0296482 0.0115329 -0.0645909)
(0.0292198 0.0132468 -0.0644571)
(0.0303309 0.0138329 -0.0638175)
(0.0317554 0.0132857 -0.0632383)
(0.0324251 0.0116723 -0.0632169)
(-0.0263945 0.0171915 -0.0647438)
(-0.0269257 0.0152725 -0.0650039)
(-0.0300911 0.0152335 -0.0636118)
(-0.0298197 0.0172592 -0.0632211)
(0.0227129 0.0222212 -0.0646091)
(0.0237842 0.0230906 -0.0639151)
(0.0259741 0.02226 -0.0633549)
(0.0267061 0.0202883 -0.0637116)
(0.0256195 0.0194632 -0.0644114)
(0.0235345 0.0202582 -0.0649594)
(0.017015 0.0256485 -0.0650895)
(0.0160053 0.0274665 -0.064602)
(0.0170665 0.0284408 -0.0639051)
(0.0195226 0.0277158 -0.0635193)
(0.0205081 0.0258301 -0.0640017)
(0.0194561 0.0249313 -0.064683)
(-0.00622245 0.0306342 -0.0648601)
(-0.00953371 0.0302458 -0.0646398)
(-0.0106405 0.0313005 -0.0639614)
(-0.00953259 0.0329523 -0.0633031)
(-0.00621826 0.0333437 -0.0635101)
(-0.00316656 0.033525 -0.06364)
(-4.66899e-16 0.0335852 -0.063687)
(-2.01019e-15 0.0308711 -0.0650459)
(-0.0031694 0.0308121 -0.0649967)
(0.0031694 0.0308121 -0.0649967)
(0.00316656 0.033525 -0.06364)
(0.00621826 0.0333437 -0.0635101)
(0.00622245 0.0306342 -0.0648601)
(0.0366055 0 -0.062009)
(0.0365379 0.0014136 -0.0620241)
(0.0390577 0.00141313 -0.060469)
(0.0391422 0 -0.060439)
(0.0364851 0.00281377 -0.0620074)
(0.0365683 0.00430178 -0.0618729)
(0.0374232 0.00479662 -0.0613229)
(0.0386103 0.0042936 -0.0606202)
(0.0389496 0.00281057 -0.0604899)
(-0.0361011 0.00583564 -0.0620214)
(-0.037334 0.005902 -0.0612808)
(-0.0371968 0.00728876 -0.061215)
(-0.0358986 0.00724568 -0.0619902)
(-0.0356958 0.00863776 -0.061929)
(-0.0370133 0.00871875 -0.0611392)
(-0.0367926 0.0101722 -0.0610478)
(-0.0352413 0.0101358 -0.0619622)
(-0.0334229 0.0133496 -0.0623594)
(-0.0337367 0.0118194 -0.0624991)
(-0.0366006 0.0116521 -0.0608985)
(-0.036518 0.0133078 -0.0606081)
(-0.0325167 0.0172368 -0.0618834)
(-0.0330797 0.0150361 -0.0621583)
(-0.0357721 0.015174 -0.0606144)
(-0.0349556 0.0171917 -0.060552)
(-0.0335403 0.0179262 -0.0611367)
(0.0331984 0.0198292 -0.0607344)
(0.0300629 0.0197745 -0.0623634)
(0.029142 0.0221789 -0.0619907)
(0.0301599 0.0230235 -0.0611907)
(0.0317652 0.0222537 -0.0606609)
(0.0239014 0.0259341 -0.0627706)
(0.0228137 0.0276924 -0.0624233)
(0.0267483 0.0277029 -0.0608365)
(0.0273104 0.0259198 -0.0613703)
(0.0262135 0.0251173 -0.062177)
(0.0171071 0.0311878 -0.0625993)
(0.0160396 0.0329201 -0.0619919)
(0.0170601 0.0338528 -0.0612123)
(0.0195258 0.0332055 -0.0608287)
(0.0206248 0.0314211 -0.0614111)
(0.0196443 0.0304819 -0.0622009)
(-0.00952718 0.0355246 -0.061897)
(-0.0106434 0.0364542 -0.0611703)
(-0.00967172 0.0376771 -0.0605879)
(-0.00626077 0.0385726 -0.0604728)
(-0.006206 0.0359572 -0.0620691)
(-0.00315935 0.036155 -0.0621839)
(-0.00306612 0.0386371 -0.0606776)
(-7.96354e-18 0.0386879 -0.0607227)
(-8.22241e-17 0.0362189 -0.0622269)
(0.00315935 0.036155 -0.0621839)
(0.00306612 0.0386371 -0.0606776)
(0.00626077 0.0385726 -0.0604728)
(0.006206 0.0359572 -0.0620691)
(-0.0402857 0.00144069 -0.0596573)
(-0.0403582 0 -0.0596345)
(-0.0427056 0 -0.057976)
(-0.0426648 0.00141452 -0.0579803)
(-0.0400829 0.00432972 -0.0596541)
(-0.0401918 0.00288364 -0.0596683)
(-0.0426252 0.00280755 -0.0579587)
(-0.0426861 0.00427556 -0.057824)
(-0.0398989 0.00718371 -0.0595019)
(-0.0399904 0.00576742 -0.0595945)
(-0.0423237 0.00579598 -0.0579579)
(-0.0421273 0.00718299 -0.0579456)
(0.040672 0.0091776 -0.0586989)
(0.0399037 0.00867419 -0.0592997)
(0.0393868 0.0102144 -0.0593999)
(0.0405217 0.0102939 -0.0586177)
(0.040288 0.0117342 -0.058508)
(0.0390824 0.0116584 -0.0593351)
(0.0385623 0.0132967 -0.0593308)
(0.040025 0.0132832 -0.0583572)
(0.0366675 0.0173516 -0.0594846)
(0.0373883 0.0181365 -0.0587978)
(0.0387837 0.0174164 -0.0581076)
(0.0398342 0.0151235 -0.0580389)
(0.0370174 0.0152557 -0.0598413)
(-0.0333301 0.022443 -0.0597446)
(-0.033904 0.0206622 -0.0600632)
(-0.0354159 0.0198608 -0.0594581)
(-0.0369212 0.019958 -0.0585021)
(-0.0364102 0.0223148 -0.0579685)
(0.0304587 0.0257761 -0.0599321)
(0.0295836 0.0277355 -0.0594941)
(0.0304897 0.0285528 -0.058644)
(0.0324931 0.0276199 -0.0580116)
(0.0333517 0.0256592 -0.0584232)
(0.0324211 0.0248347 -0.0592968)
(0.0229308 0.0332993 -0.0595763)
(0.0239174 0.034083 -0.0587393)
(0.0262505 0.0332339 -0.0582273)
(0.0272878 0.0313774 -0.0587778)
(0.0263246 0.0305654 -0.0596387)
(0.0239568 0.0314791 -0.0601593)
(-0.0128939 0.0387194 -0.0593174)
(-0.0160683 0.0375861 -0.0592713)
(-0.0163159 0.0388886 -0.0583564)
(-0.014022 0.0393594 -0.0586363)
(0.0170227 0.0363179 -0.0597933)
(0.0160683 0.0375861 -0.0592713)
(0.0163159 0.0388886 -0.0583564)
(0.0193075 0.0381437 -0.0579334)
(0.0204309 0.0365687 -0.0585603)
(0.0194733 0.0357126 -0.0594088)
(-0.044547 0.00141076 -0.0565471)
(-0.0445701 0 -0.0565532)
(-0.0460867 0 -0.0553241)
(-0.0460695 0.00144125 -0.055313)
(-0.0460319 0.00287478 -0.0552884)
(-0.0459748 0.00428565 -0.0552444)
(-0.0442533 0.00424962 -0.0566355)
(-0.0444847 0.00279983 -0.0565444)
(-0.0444259 0.00717963 -0.0562032)
(-0.0443622 0.00572719 -0.0564198)
(-0.0459012 0.00565812 -0.0551821)
(-0.0457132 0.00708888 -0.0551729)
(-0.0450519 0.00762772 -0.055643)
(0.0433404 0.0058607 -0.057195)
(0.0432092 0.00726018 -0.0571337)
(0.0444259 0.00717963 -0.0562032)
(0.0443622 0.00572719 -0.0564198)
(0.0430251 0.00870467 -0.0570707)
(0.042858 0.0101571 -0.0569563)
(0.0447994 0.0101451 -0.0554445)
(0.0449624 0.00875549 -0.0555493)
(0.0445902 0.0115665 -0.0553348)
(0.0427012 0.0116037 -0.0567976)
(0.0425874 0.0132003 -0.0565338)
(0.0432839 0.0137591 -0.0558676)
(0.0442133 0.0131266 -0.055289)
(-0.040179 0.0174571 -0.0571393)
(-0.0405491 0.0157872 -0.0573632)
(-0.0417563 0.0151692 -0.0566596)
(-0.0430285 0.0151632 -0.0557012)
(-0.0427406 0.0172317 -0.0553201)
(0.0404528 0.0204997 -0.0559225)
(0.0397988 0.0197211 -0.0566669)
(0.0385426 0.0222503 -0.0565985)
(0.0400583 0.0224319 -0.055463)
(-0.0365517 0.025057 -0.0567461)
(-0.0371761 0.0258652 -0.0559726)
(-0.0365754 0.0276786 -0.055499)
(-0.0349536 0.0274805 -0.056631)
(0.0293542 0.0331239 -0.0567903)
(0.0301679 0.0338917 -0.0559039)
(0.0318798 0.0330895 -0.0554325)
(0.0335486 0.0311266 -0.0555844)
(0.0324576 0.0302965 -0.0566801)
(0.0304157 0.0312537 -0.0572896)
(0.0238016 0.0366041 -0.0572506)
(0.02271 0.0382058 -0.0566443)
(0.0236065 0.0389458 -0.055767)
(0.0258542 0.0381687 -0.0553056)
(0.0269932 0.0365287 -0.0558661)
(0.0261088 0.0357825 -0.0567621)
(-0.0131644 0.0418111 -0.0571185)
(-0.0161873 0.0414153 -0.0566281)
(-0.0172048 0.0420103 -0.055885)
(-0.0161179 0.0431832 -0.0553121)
(-0.0128483 0.0442073 -0.0553591)
(-0.00647815 0.0438016 -0.0567755)
(-0.00968664 0.0432405 -0.0567488)
(-0.00971361 0.0444786 -0.055779)
(-0.00671041 0.0447929 -0.0559693)
(0.00647815 0.0438016 -0.0567755)
(0.0031742 0.0442835 -0.0566824)
(0.00419419 0.0449835 -0.0560615)
(0.00671041 0.0447929 -0.0559693)
(0.0107396 0.0421603 -0.0573687)
(0.00968664 0.0432405 -0.0567488)
(0.00971361 0.0444786 -0.055779)
(0.0128483 0.0442073 -0.0553591)
(0.0131644 0.0418111 -0.0571185)
(-0.0474958 0.00144794 -0.054093)
(-0.0475095 0 -0.0541072)
(-0.0488959 0 -0.0528577)
(-0.0488821 0.00145082 -0.0528435)
(-0.0474125 0.00432397 -0.0540126)
(-0.0474651 0.0028911 -0.0540621)
(-0.0488517 0.00289805 -0.052812)
(-0.0488009 0.00433836 -0.0527603)
(-0.0487299 0.00576242 -0.0526895)
(-0.0486432 0.00715351 -0.0525991)
(-0.0472452 0.00710298 -0.053865)
(-0.047339 0.00573357 -0.0539458)
(-0.0472147 0.0100848 -0.0534141)
(-0.047056 0.00853371 -0.0538229)
(-0.0485492 0.0084942 -0.0524864)
(-0.0484343 0.0100078 -0.0523256)
(-0.0477165 0.0105352 -0.0528786)
(0.0464334 0.00907655 -0.054273)
(0.0463389 0.0102095 -0.0541523)
(0.0472147 0.0100848 -0.0534141)
(0.047056 0.00853371 -0.0538229)
(0.0461606 0.0116141 -0.0540214)
(0.0459519 0.0130683 -0.0538669)
(0.0473631 0.0131296 -0.0526151)
(0.0475674 0.0116877 -0.0527707)
(-0.0456847 0.0148243 -0.0536391)
(-0.0462792 0.0154891 -0.052937)
(-0.0458713 0.0172075 -0.052761)
(-0.0450922 0.0179634 -0.053179)
(-0.0444441 0.0172646 -0.0539505)
(-0.0448464 0.0154295 -0.0541731)
(0.0428774 0.0197715 -0.0543564)
(0.0422074 0.0221681 -0.0539548)
(0.0429543 0.0229332 -0.0530377)
(0.04415 0.0220428 -0.0524299)
(0.0447577 0.0197056 -0.0528435)
(0.0407296 0.0259738 -0.0533897)
(0.0401755 0.0251536 -0.0541961)
(0.0386236 0.027666 -0.0541)
(0.0401328 0.027856 -0.0528905)
(-0.0360226 0.033106 -0.0528239)
(-0.0340646 0.0341104 -0.0534797)
(-0.033573 0.0332802 -0.0543073)
(-0.0342667 0.0315781 -0.0548873)
(-0.0362061 0.0305016 -0.0542473)
(-0.0369705 0.0312178 -0.0533164)
(-0.0301821 0.0364334 -0.0542739)
(-0.0308113 0.0369681 -0.0535539)
(-0.0296817 0.0387071 -0.0529599)
(-0.0274238 0.0396135 -0.0535043)
(-0.0268055 0.0390567 -0.0542221)
(-0.0194925 0.0433013 -0.0541206)
(-0.0205683 0.0420997 -0.0546677)
(-0.0228078 0.0415667 -0.054185)
(-0.0238507 0.0420222 -0.0533786)
(-0.0228254 0.0432527 -0.0528413)
(-0.019747 0.0445602 -0.0529948)
(0.0194925 0.0433013 -0.0541206)
(0.0163494 0.0444626 -0.0542197)
(0.0173283 0.0450069 -0.0534613)
(0.019747 0.0445602 -0.0529948)
(-0.00307611 0.0489727 -0.0526898)
(1.91358e-19 0.0490378 -0.052719)
(-1.05455e-19 0.0471143 -0.0544448)
(-0.00312513 0.0470714 -0.0543922)
(0.00312513 0.0470714 -0.0543922)
(0.00307611 0.0489727 -0.0526898)
(0.00631952 0.0486117 -0.0527349)
(0.00739537 0.0477073 -0.0534165)
(0.00638114 0.047057 -0.0541195)
(-0.0502367 0.00145188 -0.0515574)
(-0.0502512 0 -0.0515709)
(-0.0515709 0 -0.0502512)
(-0.0515574 0.00145188 -0.0502367)
(-0.0501548 0.0043417 -0.0514747)
(-0.0502058 0.00290017 -0.0515264)
(-0.0515264 0.00290017 -0.0502058)
(-0.0514747 0.0043417 -0.0501548)
(-0.0499968 0.0071575 -0.0513136)
(-0.0500845 0.00576636 -0.0514033)
(-0.0514033 0.00576636 -0.0500845)
(-0.0513136 0.0071575 -0.0499968)
(-0.0497588 0.0100069 -0.0510678)
(-0.0498949 0.00849767 -0.0512083)
(-0.0512083 0.00849767 -0.0498949)
(-0.0510678 0.0100069 -0.0497588)
(-0.0503643 0.0105297 -0.0503643)
(0.0489071 0.0116892 -0.0515311)
(0.0487226 0.0131495 -0.0513537)
(0.0500551 0.0131521 -0.0500551)
(0.0502361 0.0116902 -0.0502361)
(-0.0484646 0.0149647 -0.0511003)
(-0.0490419 0.0155764 -0.0503613)
(-0.0487822 0.0171608 -0.050098)
(-0.0474302 0.0171542 -0.051382)
(-0.047685 0.0155663 -0.051651)
(0.0475513 0.0201328 -0.0501751)
(0.04704 0.0193644 -0.0509535)
(0.0461987 0.0201491 -0.0514169)
(0.045734 0.02205 -0.0510509)
(0.0462504 0.0228334 -0.0502348)
(0.0471312 0.0220441 -0.0497665)
(0.0429816 0.0256714 -0.0517452)
(0.0422517 0.0276208 -0.0513409)
(0.0430203 0.0284827 -0.0502194)
(0.0443079 0.0269221 -0.04996)
(0.0448035 0.0254197 -0.0503039)
(0.0441892 0.024732 -0.0511824)
(0.0369585 0.0338962 -0.0516635)
(0.0375944 0.0343216 -0.0509185)
(0.0394354 0.0332144 -0.0502558)
(0.040372 0.0313165 -0.0507285)
(0.0399659 0.0304448 -0.0515736)
(-0.0325503 0.0384122 -0.0514683)
(-0.0336293 0.0366994 -0.0520214)
(-0.035277 0.0358537 -0.0515175)
(-0.0368068 0.0359908 -0.0503381)
(-0.0334914 0.039136 -0.0503061)
(-0.0259863 0.0431041 -0.0514855)
(-0.0270697 0.0418436 -0.0519649)
(-0.0292743 0.040994 -0.0514442)
(-0.0301304 0.0418022 -0.0502865)
(-0.0261569 0.0443749 -0.050306)
(0.0259863 0.0431041 -0.0514855)
(0.0230556 0.0445144 -0.0516809)
(0.0239856 0.0449814 -0.0508465)
(0.0261569 0.0443749 -0.050306)
(-0.012784 0.0486854 -0.0514811)
(-0.0139287 0.0476841 -0.0521173)
(-0.0164033 0.047341 -0.0517085)
(-0.0173715 0.047857 -0.050911)
(-0.0162071 0.0489175 -0.0502833)
(-0.0129138 0.0498971 -0.0502743)
(-0.00635934 0.0498628 -0.0515486)
(-0.00969185 0.0493121 -0.0515595)
(-0.00983922 0.0502117 -0.0506554)
(-0.00739509 0.0504824 -0.050802)
(0.012784 0.0486854 -0.0514811)
(0.00969185 0.0493121 -0.0515595)
(0.00983922 0.0502117 -0.0506554)
(0.0129138 0.0498971 -0.0502743)
(-0.0528435 0.00145082 -0.0488821)
(-0.0528577 0 -0.0488959)
(-0.0541072 0 -0.0475095)
(-0.054093 0.00144794 -0.0474958)
(-0.0540621 0.0028911 -0.0474651)
(-0.0540126 0.00432397 -0.0474125)
(-0.0527603 0.00433836 -0.0488009)
(-0.052812 0.00289805 -0.0488517)
(-0.0525991 0.00715351 -0.0486432)
(-0.0526895 0.00576242 -0.0487299)
(-0.0539458 0.00573357 -0.047339)
(-0.053865 0.00710298 -0.0472452)
(-0.0523256 0.0100078 -0.0484343)
(-0.0524864 0.0084942 -0.0485492)
(-0.0538229 0.00853371 -0.047056)
(-0.0534141 0.0100848 -0.0472147)
(-0.0528786 0.0105352 -0.0477165)
(0.0515311 0.0116892 -0.0489071)
(0.0513537 0.0131495 -0.0487226)
(0.0526151 0.0131296 -0.0473631)
(0.0527707 0.0116877 -0.0475674)
(-0.050098 0.0171608 -0.0487822)
(-0.0503613 0.0155764 -0.0490419)
(-0.0511003 0.0149647 -0.0484646)
(-0.051651 0.0155663 -0.047685)
(-0.051382 0.0171542 -0.0474302)
(0.0501751 0.0201328 -0.0475513)
(0.049687 0.019363 -0.0483764)
(0.0488801 0.0201363 -0.0488801)
(0.0484653 0.0220505 -0.0484653)
(0.0489359 0.0228473 -0.0476159)
(0.0497665 0.0220441 -0.0471312)
(0.0476159 0.0254844 -0.0476159)
(0.0471519 0.0247018 -0.0484822)
(0.0462562 0.0254761 -0.0489421)
(0.0457464 0.0272232 -0.0484785)
(0.046236 0.0279632 -0.0475846)
(0.0471365 0.0272084 -0.0471365)
(-0.0429658 0.0306929 -0.0489477)
(-0.0433574 0.0315206 -0.0480685)
(-0.0424718 0.0333818 -0.0476005)
(-0.040864 0.0344021 -0.0482766)
(-0.0402902 0.0339855 -0.0490478)
(0.0371869 0.0367895 -0.0494738)
(0.036089 0.0385436 -0.0489487)
(0.0369729 0.0392498 -0.0477123)
(0.0401548 0.0360436 -0.0476702)
(0.0387435 0.0359215 -0.0489141)
(0.030684 0.0423149 -0.049517)
(0.0293878 0.0438906 -0.0489282)
(0.0302329 0.0446646 -0.0476974)
(0.0337093 0.0420497 -0.0477443)
(0.0328573 0.0413158 -0.0489633)
(-0.0196015 0.0489844 -0.048993)
(-0.0207452 0.0478843 -0.0496058)
(-0.0230827 0.0473539 -0.0490796)
(-0.024009 0.0477858 -0.0482088)
(-0.0228989 0.0489261 -0.0476012)
(-0.0197967 0.0501402 -0.0477289)
(0.0196015 0.0489844 -0.048993)
(0.0164082 0.0500846 -0.0490541)
(0.0173691 0.0505757 -0.0482122)
(0.0197967 0.0501402 -0.0477289)
(-0.00310199 0.0525743 -0.049095)
(-0.00311335 0.0541663 -0.0473321)
(-1.83391e-18 0.0542396 -0.0473504)
(1.47274e-19 0.0526362 -0.0491267)
(0.00311335 0.0541663 -0.0473321)
(0.00636343 0.0538343 -0.0473854)
(0.00740436 0.0530794 -0.0480806)
(0.00636312 0.0525026 -0.0488568)
(0.00310199 0.0525743 -0.049095)
(-0.055313 0.00144125 -0.0460695)
(-0.0553241 0 -0.0460867)
(-0.0565532 0 -0.0445701)
(-0.0565471 0.00141076 -0.044547)
(-0.0552444 0.00428565 -0.0459748)
(-0.0552884 0.00287478 -0.0460319)
(-0.0565444 0.00279983 -0.0444847)
(-0.0566355 0.00424962 -0.0442533)
(-0.0551729 0.00708888 -0.0457132)
(-0.0551821 0.00565812 -0.0459012)
(-0.0564198 0.00572719 -0.0443622)
(-0.0562032 0.00717963 -0.0444259)
(-0.055643 0.00762772 -0.0450519)
(0.054273 0.00907655 -0.0464334)
(0.0541523 0.0102095 -0.0463389)
(0.0554445 0.0101451 -0.0447994)
(0.0555493 0.00875549 -0.0449624)
(0.054801 0.00863394 -0.0458945)
(0.0540214 0.0116141 -0.0461606)
(0.0538669 0.0130683 -0.0459519)
(0.055289 0.0131266 -0.0442133)
(0.0553348 0.0115665 -0.0445902)
(-0.052761 0.0172075 -0.0458713)
(-0.052937 0.0154891 -0.0462792)
(-0.0536391 0.0148243 -0.0456847)
(-0.0541731 0.0154295 -0.0448464)
(-0.0539505 0.0172646 -0.0444441)
(-0.053179 0.0179634 -0.0450922)
(0.0510509 0.02205 -0.045734)
(0.0515642 0.0228378 -0.0447613)
(0.0524299 0.0220428 -0.04415)
(0.0528435 0.0197056 -0.0447577)
(0.052071 0.0194812 -0.0457504)
(0.0514169 0.0201491 -0.0461987)
(0.0503039 0.0254197 -0.0448035)
(0.0498087 0.0246651 -0.0457682)
(0.0489421 0.0254761 -0.0462562)
(0.0484785 0.0272232 -0.0457464)
(0.0490368 0.0282195 -0.0445315)
(0.04996 0.0269221 -0.0443079)
(-0.0443501 0.0332032 -0.045985)
(-0.0450564 0.0314455 -0.0465307)
(-0.0459831 0.0309049 -0.0459831)
(-0.0465307 0.0314455 -0.0450564)
(-0.045985 0.0332032 -0.0443501)
(-0.0449427 0.0338276 -0.0449427)
(-0.0394794 0.0386348 -0.0461815)
(-0.0405594 0.0368131 -0.0467304)
(-0.0422298 0.0358168 -0.0460196)
(-0.043 0.0366504 -0.0446291)
(-0.0403348 0.0394746 -0.0447087)
(-0.0330146 0.0442104 -0.0462544)
(-0.0342537 0.0425368 -0.046918)
(-0.0363663 0.0414903 -0.0462607)
(-0.037276 0.0423057 -0.0447743)
(-0.0339423 0.0450347 -0.0447638)
(-0.0263199 0.0500396 -0.0445792)
(-0.0260786 0.0487717 -0.0461002)
(-0.0271712 0.0475702 -0.0467205)
(-0.0294786 0.0467267 -0.0461695)
(-0.030409 0.0475851 -0.0446648)
(0.0260786 0.0487717 -0.0461002)
(0.0231106 0.0500969 -0.0462622)
(0.0240632 0.0505693 -0.0452516)
(0.0263199 0.0500396 -0.0445792)
(-0.0127784 0.0539442 -0.0459428)
(-0.013922 0.0530395 -0.0466582)
(-0.0164098 0.0527276 -0.0462008)
(-0.0173792 0.0532619 -0.0452231)
(-0.0162071 0.0542973 -0.04442)
(-0.013106 0.054965 -0.0446216)
(-0.00650113 0.0548001 -0.0462459)
(-0.00963742 0.0545191 -0.0460303)
(-0.00976238 0.0556155 -0.0446722)
(-0.00644673 0.0557501 -0.0451039)
(-8.91762e-19 0.0550525 -0.0464029)
(-0.00326026 0.0549807 -0.0463734)
(-0.00325885 0.0558934 -0.0452693)
(3.00285e-20 0.0559455 -0.0453223)
(0.00650113 0.0548001 -0.0462459)
(0.00326026 0.0549807 -0.0463734)
(0.00325885 0.0558934 -0.0452693)
(0.00644673 0.0557501 -0.0451039)
(0.0127784 0.0539442 -0.0459428)
(0.00963742 0.0545191 -0.0460303)
(0.00976238 0.0556155 -0.0446722)
(0.013106 0.054965 -0.0446216)
(-0.0579803 0.00141452 -0.0426648)
(-0.057976 0 -0.0427056)
(-0.0596345 0 -0.0403582)
(-0.0596573 0.00144069 -0.0402857)
(-0.057824 0.00427556 -0.0426861)
(-0.0579587 0.00280755 -0.0426252)
(-0.0596683 0.00288364 -0.0401918)
(-0.0596541 0.00432972 -0.0400829)
(-0.0579456 0.00718299 -0.0421273)
(-0.0579579 0.00579598 -0.0423237)
(-0.0595945 0.00576742 -0.0399904)
(-0.0595019 0.00718371 -0.0398989)
(0.057195 0.0058607 -0.0433404)
(0.0571337 0.00726018 -0.0432092)
(0.0579456 0.00718299 -0.0421273)
(0.0579579 0.00579598 -0.0423237)
(0.0570707 0.00870467 -0.0430251)
(0.0569563 0.0101571 -0.042858)
(0.0586177 0.0102939 -0.0405217)
(0.0586989 0.0091776 -0.040672)
(0.0580225 0.00866333 -0.0417413)
(0.0567976 0.0116037 -0.0427012)
(0.0565338 0.0132003 -0.0425874)
(0.0583572 0.0132832 -0.040025)
(0.058508 0.0117342 -0.040288)
(-0.0553201 0.0172317 -0.0427406)
(-0.0557012 0.0151632 -0.0430285)
(-0.0566596 0.0151692 -0.0417563)
(-0.0573632 0.0157872 -0.0405491)
(-0.0571393 0.0174571 -0.040179)
(0.0539548 0.0221681 -0.0422074)
(0.0546755 0.0232176 -0.0406883)
(0.055463 0.0224319 -0.0400583)
(0.0559225 0.0204997 -0.0404528)
(0.0553103 0.0196358 -0.0417038)
(0.0543564 0.0197715 -0.0428774)
(0.0517452 0.0256714 -0.0429816)
(0.0513409 0.0276208 -0.0422517)
(0.0520575 0.0286547 -0.0406561)
(0.0528905 0.027856 -0.0401328)
(0.0533897 0.0259738 -0.0407296)
(0.0526668 0.0249318 -0.042292)
(-0.0489477 0.0306929 -0.0429658)
(-0.0490478 0.0339855 -0.0402902)
(-0.0482766 0.0344021 -0.040864)
(-0.0476005 0.0333818 -0.0424718)
(-0.0480685 0.0315206 -0.0433574)
(0.0490478 0.0339855 -0.0402902)
(0.0502558 0.0332144 -0.0394354)
(0.0507285 0.0313165 -0.040372)
(0.0501464 0.030475 -0.0417207)
(0.0489477 0.0306929 -0.0429658)
(-0.0446291 0.0366504 -0.043)
(-0.0460196 0.0358168 -0.0422298)
(-0.0467304 0.0368131 -0.0405594)
(-0.0461815 0.0386348 -0.0394794)
(-0.0447087 0.0394746 -0.0403348)
(0.0435474 0.0372993 -0.0435474)
(0.0427036 0.039202 -0.0427036)
(0.0435785 0.0401007 -0.0409493)
(0.0447087 0.0394746 -0.0403348)
(0.0446291 0.0366504 -0.043)
(0.0368536 0.0447408 -0.0427092)
(0.0378167 0.0456244 -0.0408939)
(0.0399113 0.0447009 -0.0399113)
(0.0409069 0.0428631 -0.0409069)
(0.0399803 0.0419765 -0.042703)
(0.0379225 0.0429199 -0.0436322)
(0.031077 0.0482262 -0.0435023)
(0.0298697 0.0498544 -0.0425011)
(0.0308596 0.0507877 -0.0406484)
(0.0332729 0.0499822 -0.0397327)
(0.034437 0.0482898 -0.040819)
(0.0334576 0.0473946 -0.042642)
(-0.019706 0.0546923 -0.0424785)
(-0.0208435 0.0535362 -0.0433984)
(-0.023281 0.0531563 -0.0426192)
(-0.0244208 0.053904 -0.041012)
(-0.0232192 0.0553456 -0.039771)
(-0.0199753 0.0560245 -0.0405739)
(0.019706 0.0546923 -0.0424785)
(0.016417 0.0557102 -0.0425542)
(0.0176145 0.0565022 -0.0410027)
(0.0199753 0.0560245 -0.0405739)
(-0.00310453 0.0578261 -0.0427843)
(-0.00314161 0.0597349 -0.0400734)
(1.6288e-17 0.0597943 -0.040108)
(1.42058e-18 0.0578564 -0.042856)
(0.00310453 0.0578261 -0.0427843)
(0.00314161 0.0597349 -0.0400734)
(0.00643132 0.0594479 -0.0401071)
(0.00751674 0.0586547 -0.0410747)
(0.00634937 0.0578424 -0.0424021)
(0.062009 0 -0.0366055)
(0.0620241 0.0014136 -0.0365379)
(0.0636653 0.00145171 -0.0335949)
(0.0636522 0 -0.0336698)
(0.0636484 0.00290071 -0.0335332)
(0.0620074 0.00281377 -0.0364851)
(0.0618729 0.00430178 -0.0365683)
(0.0636061 0.00434784 -0.0334568)
(-0.0620214 0.00583564 -0.0361011)
(-0.0619902 0.00724568 -0.0358986)
(-0.061215 0.00728876 -0.0371968)
(-0.0612808 0.005902 -0.037334)
(0.0620214 0.00583564 -0.0361011)
(0.0619902 0.00724568 -0.0358986)
(0.0634613 0.00722103 -0.0332344)
(0.0635455 0.00579151 -0.033353)
(-0.061929 0.00863776 -0.0356958)
(-0.0619622 0.0101358 -0.0352413)
(-0.0610478 0.0101722 -0.0367926)
(-0.0611392 0.00871875 -0.0370133)
(0.061929 0.00863776 -0.0356958)
(0.0619622 0.0101358 -0.0352413)
(0.0625921 0.0106475 -0.0339538)
(0.0631374 0.0101133 -0.0330967)
(0.0633503 0.00862338 -0.0331116)
(-0.0606081 0.0133078 -0.036518)
(-0.0608985 0.0116521 -0.0366006)
(-0.0624991 0.0118194 -0.0337367)
(-0.0623594 0.0133496 -0.0334229)
(-0.060552 0.0171917 -0.0349556)
(-0.0606144 0.015174 -0.0357721)
(-0.0621583 0.0150361 -0.0330797)
(-0.0618834 0.0172368 -0.0325167)
(-0.0611367 0.0179262 -0.0335403)
(0.0598413 0.0152557 -0.0370174)
(0.0594846 0.0173516 -0.0366675)
(0.060552 0.0171917 -0.0349556)
(0.0606144 0.015174 -0.0357721)
(-0.0579685 0.0223148 -0.0364102)
(-0.0585021 0.019958 -0.0369212)
(-0.0594581 0.0198608 -0.0354159)
(-0.0600632 0.0206622 -0.033904)
(-0.0597446 0.022443 -0.0333301)
(-0.0567461 0.025057 -0.0365517)
(-0.056631 0.0274805 -0.0349536)
(-0.055499 0.0276786 -0.0365754)
(-0.0559726 0.0258652 -0.0371761)
(0.0584232 0.0256592 -0.0333517)
(0.0578666 0.0248443 -0.0349031)
(0.0567461 0.025057 -0.0365517)
(0.056631 0.0274805 -0.0349536)
(0.0571354 0.0283821 -0.0333766)
(0.0580116 0.0276199 -0.0324931)
(-0.0528239 0.033106 -0.0360226)
(-0.0533164 0.0312178 -0.0369705)
(-0.0542473 0.0305016 -0.0362061)
(-0.0548873 0.0315781 -0.0342667)
(-0.0543073 0.0332802 -0.033573)
(-0.0534797 0.0341104 -0.0340646)
(-0.0515175 0.0358537 -0.035277)
(-0.0520214 0.0366994 -0.0336293)
(-0.0514683 0.0384122 -0.0325503)
(-0.0503061 0.039136 -0.0334914)
(-0.0503381 0.0359908 -0.0368068)
(0.0494738 0.0367895 -0.0371869)
(0.0489487 0.0385436 -0.036089)
(0.0495368 0.0396196 -0.0340646)
(0.0503061 0.039136 -0.0334914)
(0.0503381 0.0359908 -0.0368068)
(-0.0447743 0.0423057 -0.037276)
(-0.0462607 0.0414903 -0.0363663)
(-0.046918 0.0425368 -0.0342537)
(-0.0462544 0.0442104 -0.0330146)
(-0.0447638 0.0450347 -0.0339423)
(0.0427092 0.0447408 -0.0368536)
(0.0436162 0.0456541 -0.0346025)
(0.0447638 0.0450347 -0.0339423)
(0.0447743 0.0423057 -0.037276)
(0.0436322 0.0429199 -0.0379225)
(0.0377432 0.0483208 -0.0377432)
(0.0366138 0.0500286 -0.0366138)
(0.0376168 0.0509068 -0.0343142)
(0.0397327 0.0499822 -0.0332729)
(0.040819 0.0482898 -0.034437)
(0.0398553 0.0474022 -0.036723)
(0.0307234 0.0533155 -0.0373835)
(0.0295832 0.054794 -0.0361448)
(0.0306366 0.0556208 -0.033937)
(0.0329967 0.054831 -0.0329967)
(0.0341652 0.0533805 -0.0341652)
(0.0331374 0.0525119 -0.0364474)
(-0.0231783 0.0576331 -0.0364032)
(-0.0242273 0.0585216 -0.0342382)
(-0.0230678 0.0596048 -0.0331533)
(-0.0205772 0.0601332 -0.0338316)
(-0.0196522 0.0594818 -0.0354923)
(-0.019961 0.0582847 -0.037262)
(0.0176167 0.0586684 -0.0378375)
(0.016499 0.0595611 -0.0369358)
(0.0196522 0.0594818 -0.0354923)
(0.019961 0.0582847 -0.037262)
(-0.00956002 0.0612683 -0.0365896)
(-0.0098683 0.0629238 -0.0335739)
(-0.00741533 0.0631051 -0.0338639)
(-0.00635827 0.0624618 -0.0352435)
(-0.00647604 0.061486 -0.0368989)
(-0.0032639 0.0616071 -0.0371201)
(-0.00310945 0.0624349 -0.0357241)
(2.46168e-16 0.0624574 -0.0358199)
(1.204e-16 0.0616409 -0.0372075)
(0.0032639 0.0616071 -0.0371201)
(0.00310945 0.0624349 -0.0357241)
(0.00635827 0.0624618 -0.0352435)
(0.00647604 0.061486 -0.0368989)
(0.0140756 0.0617815 -0.0341896)
(0.0129264 0.0609613 -0.0360643)
(0.00956002 0.0612683 -0.0365896)
(0.0098683 0.0629238 -0.0335739)
(0.0129457 0.0625023 -0.0333147)
(-0.0658523 0.00141673 -0.0290771)
(-0.0658299 0 -0.0291801)
(-0.0670331 0 -0.0262997)
(-0.0670452 0.0013773 -0.0262116)
(0.0651818 0 -0.0306037)
(0.0651992 0.00145294 -0.0305115)
(0.0658523 0.00141673 -0.0290771)
(0.0658299 0 -0.0291801)
(-0.0659863 0.00430909 -0.0284822)
(-0.0658753 0.00282173 -0.028922)
(-0.0670517 0.00272573 -0.0260897)
(-0.0670693 0.00425959 -0.0258376)
(-0.0665525 0.00479086 -0.0270515)
(0.0652064 0.00290686 -0.0303919)
(0.0651831 0.004365 -0.0302672)
(0.0659863 0.00430909 -0.0284822)
(0.0658753 0.00282173 -0.028922)
(0.0651004 0.00582162 -0.0302)
(0.0649811 0.00727358 -0.0301422)
(0.0663869 0.00732184 -0.0268915)
(0.0664876 0.00592316 -0.0269869)
(0.0648515 0.0087035 -0.0300421)
(0.0647174 0.0101187 -0.0298877)
(0.0661146 0.0101625 -0.0266376)
(0.0662618 0.00873787 -0.026777)
(0.0645909 0.0115329 -0.0296482)
(0.0644571 0.0132468 -0.0292198)
(0.0651524 0.0138408 -0.0273331)
(0.0656761 0.0132161 -0.0263755)
(0.0659459 0.0116021 -0.0264669)
(-0.0632211 0.0172592 -0.0298197)
(-0.0636118 0.0152335 -0.0300911)
(-0.0650039 0.0152725 -0.0269257)
(-0.0647438 0.0171915 -0.0263945)
(0.0623634 0.0197745 -0.0300629)
(0.0619907 0.0221789 -0.029142)
(0.062593 0.02309 -0.0270734)
(0.0633549 0.02226 -0.0259741)
(0.0637116 0.0202883 -0.0267061)
(0.0632119 0.0195743 -0.0283743)
(0.0599321 0.0257761 -0.0304587)
(0.0594941 0.0277355 -0.0295836)
(0.0601188 0.0286315 -0.0273854)
(0.0608365 0.0277029 -0.0267483)
(0.0613703 0.0259198 -0.0273104)
(0.0607699 0.0249869 -0.0294394)
(0.0572896 0.0312537 -0.0304157)
(0.0567903 0.0331239 -0.0293542)
(0.0573458 0.0340142 -0.0271753)
(0.0582273 0.0332339 -0.0262505)
(0.0587778 0.0313774 -0.0272878)
(0.0581756 0.030472 -0.0295138)
(-0.0542739 0.0364334 -0.0301821)
(-0.0542221 0.0390567 -0.0268055)
(-0.0535043 0.0396135 -0.0274238)
(-0.0529599 0.0387071 -0.0296817)
(-0.0535539 0.0369681 -0.0308113)
(0.0558661 0.0365287 -0.0269932)