
21909
(
33.02094
32.84181
32.77633
32.85743
32.84589
32.85188
32.77838
32.77716
32.84244
32.78195
32.73652
32.76144
32.59845
32.67522
32.67305
32.7158
32.97687
32.87493
32.84718
33.01106
32.97689
32.87495
32.80367
32.99214
32.89256
32.89028
32.8456
32.8564
32.89257
32.89029
32.91161
32.90114
32.81563
32.84509
32.84827
32.97681
32.97413
32.87976
32.86583
32.93705
32.88216
32.86647
32.9142
32.87981
32.86588
32.76193
32.80237
32.83762
32.80068
32.8094
32.75545
32.76198
32.80242
32.69493
32.72744
32.76457
32.72839
32.71554
32.68184
32.69499
32.72749
32.63267
32.66297
32.69166
32.6548
32.65122
32.62457
32.63274
32.66304
32.59455
32.60727
32.62103
32.569
32.60688
32.61414
32.59462
32.60734
32.52269
32.5702
32.50542
32.46796
32.59841
32.58618
32.52277
32.57028
32.56626
32.51203
32.49909
32.55897
32.56629
32.51206
32.53543
32.49382
32.47697
32.49297
32.47772
32.47013
32.49981
32.49299
32.47775
32.46596
32.49824
32.44738
32.43083
32.54675
32.4544
32.4122
32.54823
32.54684
32.45451
32.43793
32.44742
32.43088
32.42525
32.38387
32.33595
32.46541
32.51897
32.51022
32.47982
32.46549
32.51906
32.38393
32.33601
32.27611
32.31728
32.40023
32.41121
32.41824
32.40164
32.51418
32.4918
32.43148
32.4997
32.51423
32.49184
32.40032
32.4113
32.30292
32.2444
32.2876
32.34944
32.44321
32.36954
32.3961
32.37039
32.33401
32.37343
32.39615
32.37046
32.44325
32.36959
32.28769
32.34952
32.36538
32.3434
32.4021
32.40552
32.3992
32.42183
32.42395
32.38287
32.37147
32.42779
32.42396
32.38289
32.39924
32.42186
32.40217
32.40559
32.36545
32.34348
32.31682
32.30949
32.33577
32.32325
32.29548
32.38178
32.34385
32.40581
32.31916
32.29553
32.3818
32.34388
32.3358
32.33687
32.32385
32.31125
33.08101
32.85194
33.01513
33.23908
33.01328
32.84555
32.83714
33.00976
32.82992
32.81849
32.9347
32.98209
32.79939
32.77441
32.86973
32.90236
32.74584
32.71512
32.7999
32.83544
32.76327
32.68314
32.6506
32.72519
32.61828
32.58795
32.64347
32.68528
32.56482
32.61331
32.56137
32.60097
32.62628
32.60376
32.61761
32.65443
32.62634
32.60383
32.49887
32.52834
32.57649
32.55696
32.54184
32.57707
32.57657
32.55704
32.45552
32.47225
32.43016
32.49199
32.5331
32.52722
32.57168
32.36034
32.3912
32.5255
32.45542
32.40426
32.36381
32.41888
32.40029
32.39815
32.43542
32.41906
32.40045
32.37825
32.39824
32.32921
32.3014
32.39527
32.36147
32.37845
32.39843
32.3168
32.2734
32.41088
32.35967
32.35397
32.35749
32.39629
32.39838
32.35837
32.35762
32.39642
32.3433
32.39
32.31194
32.34566
32.31286
32.34321
32.30217
32.31986
32.30099
32.31209
32.34579
32.24472
32.22219
32.24371
32.21754
32.22233
32.26617
32.29794
32.25871
32.23065
32.24487
32.16718
32.23006
32.27242
32.21375
32.19255
32.26401
32.23658
32.31057
32.27821
32.28193
32.29767
32.31067
32.27829
32.26413
32.2367
32.16735
32.23022
32.28038
32.31614
32.28816
32.26125
32.30486
32.32993
32.31618
32.2882
32.26134
32.28047
32.29117
32.28262
32.23318
32.87911
33.07838
33.09082
32.8862
32.91427
32.89034
32.8945
32.91822
33.06168
33.01138
32.99014
33.02169
33.02964
33.09225
33.06173
33.01143
33.05782
32.99913
33.06111
33.01785
33.07001
33.01896
32.95198
32.90602
32.97211
32.86089
32.81603
32.87742
32.92446
32.77121
32.72679
32.78771
32.8317
32.68299
32.63958
32.70154
32.74484
32.65671
32.59635
32.55353
32.61068
32.51199
32.47415
32.52145
32.56493
32.44609
32.43929
32.45269
32.48274
32.51451
32.55859
32.58844
32.53279
32.51465
32.55875
32.45498
32.43962
32.47536
32.54508
32.56127
32.52442
32.55883
32.36111
32.41707
32.50367
32.4438
32.30981
32.31515
32.38594
32.34519
32.47282
32.45984
32.48256
32.43219
32.3824
32.44009
32.45842
32.48281
32.43241
32.34863
32.346
32.3354
32.43416
32.287
32.31972
32.34576
32.31428
32.29778
32.27407
32.22261
32.28343
32.30973
32.29788
32.25279
32.2562
32.22558
32.24293
32.28473
32.27639
32.23455
32.26574
32.25304
32.25643
32.23666
32.25868
32.25775
32.29035
32.33098
32.27899
32.23314
32.24379
32.23688
32.25888
32.28205
32.22011
32.25181
32.27124
32.28772
32.27589
32.23911
32.27938
32.28583
32.30986
32.30731
32.27943
32.28587
32.27597
32.23917
32.28655
32.28787
32.2822
33.35961
33.13817
32.99302
33.10063
33.10031
33.00064
33.02593
33.10543
33.02048
33.07376
33.11518
33.118
33.08019
33.0806
33.06446
33.05576
33.08859
33.02914
32.98809
32.98023
33.01918
32.94019
32.94489
32.90147
32.90002
32.85885
32.81742
32.81999
32.86001
32.77649
32.73425
32.73609
32.77914
32.68951
32.64311
32.64518
32.69072
32.60264
32.59705
32.55334
32.56171
32.51415
32.48259
32.50449
32.52464
32.46066
32.45484
32.53342
32.5279
32.58999
32.534
32.54834
32.51638
32.58389
32.54408
32.49564
32.48805
32.54386
32.38528
32.43039
32.44411
32.40408
32.47487
32.39479
32.42072
32.45584
32.51047
32.39267
32.42651
32.43477
32.48716
32.38372
32.40347
32.40807
32.41317
32.32389
32.38404
32.40379
32.35792
32.33953
32.28848
32.29235
32.34953
32.34498
32.3353
32.23609
32.32441
32.29803
32.31874
32.24727
32.30481
32.2907
32.30642
32.26624
32.25149
32.30513
32.27984
32.30519
32.29103
32.21474
32.18736
32.21581
32.32053
32.27438
32.28537
32.3345
32.29842
32.27578
32.2297
32.29662
32.27745
32.29872
32.27604
32.22999
32.2857
32.20049
32.17084
32.21576
32.2976
32.24162
32.27194
32.247
32.27385
32.26756
32.32828
32.35341
32.24929
32.27359
32.36784
32.35347
32.24935
32.26769
32.32841
32.27405
32.29779
33.43229
33.1712
33.0721
33.31327
33.16005
33.14042
33.04613
33.06285
33.11546
33.08699
32.99655
33.02361
33.05515
33.01997
32.93271
32.96593
32.98233
32.9436
32.86337
32.898
32.90507
32.86739
32.80526
32.83111
32.83089
32.79196
32.81927
32.79543
32.74744
32.70085
32.76652
32.80496
32.6558
32.61718
32.68983
32.7252
32.5962
32.61398
32.6446
32.70353
32.67898
32.60378
32.66848
32.65436
32.59613
32.59144
32.56055
32.61913
32.64458
32.61924
32.56449
32.58706
32.58118
32.54338
32.48292
32.52626
32.50337
32.46128
32.4027
32.43815
32.43377
32.46105
32.51962
32.42882
32.4875
32.51924
32.51217
32.52934
32.50905
32.44965
32.43493
32.38612
32.44771
32.44273
32.36767
32.37994
32.3673
32.37062
32.3838
32.40454
32.37706
32.26226
32.27698
32.40753
32.24649
32.27582
32.26544
32.31822
32.24764
32.32863
32.27365
32.36555
32.32725
32.26308
32.33064
32.28269
32.28954
32.32611
32.2585
32.23502
32.30529
32.31359
32.28325
32.29005
32.30062
32.32429
32.29564
32.29737
32.30818
32.30562
32.31596
32.31948
32.30109
32.32475
32.27255
32.28342
32.2907
32.27496
32.3265
32.30148
32.32404
32.28613
32.32291
32.30181
32.32437
32.35251
32.32695
32.27294
32.34322
32.30424
32.33086
32.28913
32.28533
32.36198
32.30786
32.28538
32.34327
33.26598
33.44284
33.18092
33.10233
33.09629
33.17435
33.15986
33.08224
33.06179
33.13896
33.11338
33.03649
33.00773
33.0846
33.05378
32.97675
32.94478
33.02181
32.98943
32.91338
32.88485
32.95774
32.92945
32.864
32.86728
32.91443
32.90756
32.90074
32.83875
32.86975
32.88069
32.83896
32.75896
32.79848
32.79414
32.74856
32.71966
32.73307
32.70543
32.6697
32.65815
32.69479
32.65235
32.67435
32.57543
32.61678
32.66665
32.63567
32.5179
32.53949
32.6038
32.59173
32.56202
32.53959
32.53144
32.58626
32.56307
32.51767
32.53834
32.54778
32.54654
32.54694
32.52769
32.54627
32.45183
32.48947
32.51453
32.51087
32.49327
32.46497
32.44684
32.45342
32.49632
32.41684
32.37098
32.35619
32.37712
32.38277
32.37557
32.33834
32.39999
32.39733
32.38657
32.4172
32.26325
32.27693
32.2992
32.38124
32.32444
32.28225
32.26402
32.24807
32.26823
32.25977
32.32954
32.25911
32.24202
32.25992
32.3508
32.3641
32.26551
32.20784
32.24609
32.25633
32.31924
32.2279
32.24369
32.32705
32.31286
32.30984
32.23858
32.30278
32.30937
32.31237
32.35598
32.3118
32.22568
32.30338
32.31
32.29372
32.2952
32.29998
32.34133
32.35869
32.30626
32.31416
32.28985
32.36578
32.36887
32.34643
32.33664
32.36347
32.35333
32.34648
32.3367
32.29011
32.36623
32.31492
32.30045
33.1837
33.44123
33.33675
33.10839
33.15729
33.17434
33.09944
33.08332
33.10935
33.13495
33.06247
33.04001
33.05643
33.08242
33.02151
33.01656
32.99548
33.02886
33.04972
33.04779
32.92667
32.9592
33.01951
32.99052
33.00415
32.95038
32.92334
32.91011
32.98372
32.96738
32.9108
32.87688
32.9377
32.89736
32.83637
32.79537
32.85479
32.81316
32.75735
32.72612
32.77455
32.74969
32.7193
32.74322
32.7338
32.72144
32.69509
32.67796
32.70634
32.6593
32.66119
32.6353
32.66395
32.61259
32.56958
32.61307
32.64793
32.52433
32.50808
32.57326
32.57928
32.54942
32.57948
32.61081
32.56919
32.53935
32.53914
32.55986
32.57498
32.53271
32.41843
32.45385
32.49829
32.46388
32.44787
32.41438
32.4243
32.44684
32.46227
32.43371
32.39863
32.43862
32.43998
32.39814
32.38851
32.37971
32.38765
32.38981
32.40151
32.36614
32.30156
32.36158
32.35324
32.36747
32.3468
32.23055
32.25061
32.32573
32.32745
32.35885
32.3395
32.34279
32.29731
32.31673
32.30129
32.18201
32.23694
32.25158
32.18951
32.20723
32.23705
32.21438
32.22297
32.26217
32.2915
32.27683
32.20618
32.20546
32.2266
32.3033
32.28562
32.28055
32.28518
32.27715
32.22332
32.21886
32.27571
32.31672
32.37327
32.38285
32.36956
32.38401
32.3863
32.31553
32.37099
32.3852
32.31777
32.37451
32.27675
32.28609
33.13903
33.33323
33.38996
33.20364
33.11567
33.131
33.19592
33.18099
33.16006
33.13407
33.07091
33.0949
33.03128
33.04755
33.10371
33.06968
33.05621
33.0577
33.03373
32.99769
33.08408
33.10264
33.05633
33.05781
32.9858
33.02175
32.96131
32.92657
33.0752
33.0411
32.98593
33.02187
32.94994
32.96196
32.90066
32.92995
32.95061
33.01951
33.005
32.9501
32.96211
32.97069
32.92836
32.95137
32.97676
32.91524
32.88285
32.83586
32.86294
32.78839
32.74145
32.76949
32.81584
32.69761
32.66248
32.68495
32.72503
32.64326
32.68105
32.70052
32.67144
32.65343
32.71268
32.73877
32.73232
32.73609
32.66708
32.69947
32.69043
32.63638
32.60332
32.62822
32.58096
32.54241
32.63622
32.61809
32.58015
32.67162
32.66304
32.65594
32.60995
32.58732
32.60451
32.5481
32.4818
32.51971
32.55251
32.46157
32.48464
32.50145
32.48598
32.46057
32.48656
32.48461
32.49552
32.48664
32.48487
32.46092
32.43873
32.42927
32.4455
32.37781
32.41149
32.39224
32.35458
32.29822
32.31616
32.33294
32.30474
32.2914
32.30742
32.28227
32.27582
32.28662
32.33524
32.37321
32.31822
32.23652
32.31413
32.34452
32.29288
32.27456
32.29301
32.3631
32.37124
32.29202
32.25124
32.16792
32.19917
32.20527
32.29822
32.2893
32.31094
32.3661
32.21376
32.18535
32.29937
32.29049
32.21834
32.22907
32.30676
32.26533
32.35437
32.29299
32.32586
32.35354
32.29068
32.36236
32.32698
32.30785
33.22774
33.41325
33.42644
33.23725
33.20773
33.22111
33.23192
33.22058
33.16489
33.1887
33.20434
33.18337
33.10612
33.1371
33.15769
33.12779
33.03657
33.07251
33.09443
33.05832
32.95989
32.99876
33.0201
32.98044
32.88492
32.92126
32.94009
32.89971
32.83174
32.85377
32.86007
32.82276
32.87174
32.85721
32.79085
32.77144
32.8976
32.92186
32.872
32.85746
32.89291
32.84494
32.87348
32.84769
32.87242
32.79692
32.7479
32.78676
32.83369
32.73825
32.69975
32.6555
32.69073
32.62311
32.64955
32.6061
32.64593
32.66511
32.65583
32.65505
32.69525
32.66561
32.65636
32.64036
32.60919
32.57803
32.65888
32.6164
32.55565
32.59529
32.64256
32.58526
32.61892
32.65706
32.67973
32.64371
32.55051
32.55128
32.6556
32.56954
32.57259
32.5536
32.547
32.53498
32.48388
32.50675
32.49523
32.50016
32.50173
32.50422
32.50955
32.48754
32.51035
32.50417
32.47812
32.49345
32.48677
32.47749
32.43373
32.42308
32.40421
32.45633
32.44501
32.36235
32.33322
32.33385
32.39802
32.38196
32.32401
32.36488
32.3198
32.29268
32.33855
32.3567
32.30322
32.31689
32.28259
32.30046
32.24431
32.22572
32.32055
32.36538
32.34928
32.28495
32.35046
32.29361
32.21475
32.21552
32.25043
32.26519
32.28829
32.32509
32.32892
32.29418
32.2656
32.2453
32.23081
32.27011
32.30464
32.31404
32.27037
32.29833
32.27822
32.31387
32.23999
32.27061
32.22102
32.29258
32.29976
32.27989
32.20856
33.25968
33.15318
33.22482
33.40658
33.25978
33.15328
33.04694
33.20621
33.17155
33.2015
33.23243
33.2312
33.17165
33.20163
33.17496
33.12878
33.06351
33.2258
33.22261
33.20206
33.2209
33.14735
33.17714
33.19954
33.16968
33.07638
33.11347
33.13366
33.09394
32.99615
33.03703
33.05227
33.0096
32.96638
32.92289
32.91196
32.9543
32.82859
32.86973
32.87943
32.83656
32.75727
32.7901
32.79525
32.75718
32.77655
32.73684
32.72557
32.70691
32.7854
32.80755
32.84408
32.80654
32.81443
32.76045
32.71197
32.72964
32.77627
32.66375
32.61747
32.62902
32.67943
32.57582
32.54617
32.54045
32.58116
32.57786
32.61182
32.64272
32.61585
32.52217
32.57846
32.61249
32.59491
32.57837
32.62724
32.64243
32.65719
32.63742
32.63007
32.58702
32.61069
32.64488
32.62091
32.5558
32.59401
32.56327
32.52557
32.55521
32.52331
32.51892
32.50764
32.54215
32.49264
32.48561
32.50805
32.50379
32.49245
32.46033
32.4961
32.46722
32.47054
32.47351
32.50975
32.45635
32.45546
32.43571
32.46252
32.37689
32.38247
32.42999
32.35653
32.41968
32.39215
32.38198
32.38995
32.39453
32.43309
32.39006
32.36762
32.40465
32.3624
32.30742
32.34475
32.30295
32.38878
32.38217
32.3623
32.35202
32.21488
32.23506
32.27404
32.32668
32.32021
32.27648
32.3635
32.365
32.38292
32.38578
32.37406
32.36675
32.29142
32.25663
32.29819
32.33605
32.35868
32.32767
32.28534
32.28531
32.32499
32.24928
32.32955
32.22465
32.20332
32.28739
32.28764
32.20966
33.20628
33.03791
33.04701
33.20629
33.0636
33.04527
33.06021
33.12887
33.17276
33.0902
33.17217
33.17423
33.19687
33.18968
33.2189
33.21921
33.19007
33.10735
33.15045
33.15088
33.10782
33.01875
33.06313
33.06367
33.01936
32.93028
32.97446
32.97509
32.93093
32.84283
32.8863
32.88696
32.84348
32.76051
32.80049
32.80109
32.76102
32.69836
32.72503
32.72548
32.69874
32.75153
32.68739
32.6877
32.75186
32.75553
32.78909
32.74506
32.75207
32.79561
32.69932
32.69327
32.63989
32.64472
32.5886
32.544
32.54617
32.59215
32.52089
32.5766
32.5952
32.57773
32.52178
32.64032
32.6617
32.6635
32.64272
32.56813
32.59424
32.55139
32.51522
32.53689
32.64305
32.61251
32.56884
32.59493
32.49773
32.49906
32.47138
32.50222
32.47071
32.47451
32.44803
32.47564
32.44004
32.4655
32.4799
32.46522
32.48971
32.52163
32.44795
32.48092
32.46626
32.42566
32.40788
32.49034
32.4882
32.47211
32.50267
32.4488
32.50307
32.5282
32.49028
32.4618
32.51112
32.48894
32.46373
32.44534
32.50447
32.42047
32.36003
32.36193
32.3628
32.44752
32.39439
32.39234
32.38458
32.33182
32.32878
32.4109
32.32777
32.35441
32.3654
32.38106
32.42394
32.33834
32.3663
32.26993
32.28003
32.37508
32.30732
32.30986
32.36577
32.4305
32.39066
32.26379
32.34853
32.37467
32.36367
32.3301
32.27532
32.30838
32.39051
32.38256
32.39182
32.39614
32.39336
32.39401
32.25771
32.28903
32.32656
32.35975
32.33618
32.29881
32.2894
32.28811
32.30829
32.3893
32.32066
32.34213
32.29087
32.28669
32.37115
32.344
33.2598
33.40668
33.22493
33.15331
33.17169
33.23132
33.23258
33.2017
33.22111
33.20231
33.22307
33.22614
33.17035
33.20012
33.17744
33.1477
33.09476
33.1344
33.11386
33.07683
33.01065
33.05321
33.03756
32.99676
32.95496
32.91263
32.92403
32.9675
32.83767
32.88057
32.87038
32.82921
32.75807
32.79627
32.79067
32.75778
32.70758
32.72634
32.7373
32.77696
32.78582
32.74996
32.78074
32.81476
32.78944
32.74539
32.7299
32.77654
32.69361
32.6403
32.62931
32.67969
32.58906
32.54447
32.5408
32.58149
32.57714
32.59489
32.57873
32.52253
32.52136
32.64313
32.66388
32.66242
32.64109
32.51545
32.5517
32.59485
32.56858
32.53722
32.50105
32.47224
32.50442
32.47087
32.49796
32.45111
32.4766
32.47685
32.45142
32.48538
32.45665
32.45417
32.42108
32.45543
32.42591
32.4225
32.37833
32.40142
32.44671
32.46822
32.52964
32.49383
32.44819
32.46967
32.46143
32.45168
32.44399
32.48765
32.44542
32.51002
32.49176
32.45579
32.4096
32.38243
32.43263
32.44251
32.48508
32.49479
32.46802
32.4599
32.42841
32.47189
32.48374
32.47845
32.49654
32.4217
32.49231
32.48167
32.45979
32.44365
32.45258
32.51193
32.40251
32.40566
32.43638
32.45886
32.49335
32.42078
32.41486
32.33714
32.33048
32.42538
32.34786
32.34438
32.35203
32.33938
32.2496
32.21518
32.2528
32.37043
32.38394
32.36476
32.3327
32.29628
32.3381
32.38785
32.37275
32.37739
32.38218
32.38557
32.39274
32.28051
32.25737
32.27259
32.29689
32.33428
32.31263
32.34121
32.30519
32.34329
32.27021
32.32789
32.31928
32.36565
32.41908
32.40878
32.3671
32.42084
32.33022
32.34338
32.38245
33.2373
33.42648
33.41327
33.22775
33.22063
33.23196
33.22113
33.20774
33.18343
33.20439
33.1887
33.16489
33.13711
33.10613
33.12787
33.15776
33.05845
33.09452
33.07252
33.03658
32.98064
33.02027
32.99878
32.9599
32.89992
32.94029
32.92127
32.88492
32.85378
32.83176
32.82295
32.86028
32.77161
32.79104
32.85724
32.87177
32.84784
32.81012
32.84046
32.87363
32.84432
32.80671
32.78687
32.83382
32.76059
32.71209
32.69082
32.73835
32.66385
32.61757
32.60618
32.64602
32.57591
32.54628
32.60925
32.5781
32.57816
32.61608
32.64295
32.61215
32.63792
32.65768
32.64264
32.62743
32.64515
32.62716
32.64358
32.61297
32.61099
32.545
32.49938
32.47163
32.49785
32.5266
32.44835
32.47489
32.46566
32.44015
32.47582
32.42139
32.444
32.40821
32.44833
32.45455
32.3785
32.42264
32.46842
32.44696
32.40171
32.46311
32.50692
32.47067
32.50721
32.46337
32.40726
32.39179
32.40012
32.43149
32.46007
32.44205
32.50785
32.53802
32.55248
32.49773
32.50906
32.47051
32.53422
32.5132
32.51716
32.51893
32.48928
32.55057
32.51217
32.46064
32.4551
32.54371
32.50303
32.43735
32.49851
32.42046
32.33536
32.3767
32.46295
32.44237
32.47243
32.42018
32.32525
32.40792
32.35337
32.43442
32.33577
32.33056
32.34321
32.34018
32.34042
32.44578
32.4087
32.30582
32.34219
32.34985
32.29881
32.26164
32.2487
32.30735
32.32995
32.3134
32.30946
32.32598
32.35888
32.35564
32.36969
32.38847
32.38304
32.35751
32.42945
32.27604
32.27812
32.37298
32.39204
32.33961
32.38823
32.37427
32.40551
32.38476
32.39703
32.38424
32.40985
32.46441
32.45396
32.38616
32.41078
32.46548
32.4071
32.39024
32.37639
32.41096
32.40692
32.34936
33.20364
33.38995
33.33322
33.13902
33.13099
33.11566
33.18098
33.19591
33.13406
33.16005
33.09489
33.0709
33.06966
33.10369
33.04753
33.03126
32.99766
33.0337
33.05769
33.0562
33.02172
32.98576
32.92652
32.96127
32.92991
32.90061
32.96193
32.94991
32.95057
32.97686
32.94159
32.92813
32.95149
32.8977
32.92197
32.86309
32.91538
32.9236
32.81601
32.89303
32.84507
32.76967
32.79706
32.74804
32.68515
32.72522
32.6999
32.65565
32.67165
32.65364
32.62326
32.6497
32.66888
32.67107
32.68271
32.66521
32.69533
32.65513
32.65593
32.61651
32.65901
32.59537
32.55573
32.65714
32.61903
32.58534
32.64264
32.6798
32.6303
32.58731
32.55163
32.65589
32.6518
32.56333
32.59405
32.55585
32.55529
32.52567
32.54254
32.50188
32.4835
32.50805
32.47995
32.52165
32.48969
32.46524
32.52994
32.49421
32.47254
32.50306
32.49139
32.44576
32.48801
32.44415
32.45171
32.46148
32.40089
32.43208
32.43845
32.4102
32.3831
32.37957
32.52686
32.46278
32.49798
32.5094
32.50422
32.3981
32.38312
32.37739
32.38311
32.39809
32.40578
32.48046
32.54986
32.52062
32.45914
32.46794
32.40099
32.40241
32.33568
32.40508
32.37491
32.35696
32.37577
32.30313
32.45737
32.41747
32.43816
32.47389
32.43609
32.39848
32.31103
32.39881
32.29938
32.31196
32.41369
32.32847
32.39755
32.42992
32.42643
32.42174
32.3316
32.37874
32.27247
32.23566
32.23468
32.31289
32.39397
32.31266
32.35311
32.40896
32.31145
32.23726
32.24358
32.31686
32.35766
32.34249
32.30606
32.34053
32.32504
32.36262
32.38934
32.34605
32.36429
32.38892
32.39317
32.35529
32.39034
32.36146
32.39842
32.3525
32.40815
32.37513
32.35157
32.43277
32.44381
32.35801
32.35225
32.43339
32.40938
32.37645
32.40031
32.35425
33.10837
33.33674
33.44122
33.18369
33.08331
33.09943
33.17433
33.15728
33.03999
33.06245
33.13494
33.10934
33.01654
33.02149
33.08241
33.05641
33.04776
33.04969
33.02884
32.99546
33.08421
33.10278
33.04801
33.04993
32.99051
33.01949
32.95919
32.92666
33.07534
33.04124
32.9908
33.01976
32.92334
32.95037
33.00414
32.9837
32.9101
33.01967
33.00517
33.00447
32.98402
32.97087
32.92855
32.9379
32.96756
32.88305
32.83608
32.85501
32.89757
32.78862
32.74169
32.7748
32.8134
32.69786
32.66274
32.7341
32.74996
32.64354
32.68136
32.67831
32.70666
32.71272
32.73614
32.73237
32.73882
32.71332
32.73678
32.68751
32.66433
32.65966
32.63644
32.69049
32.69952
32.66714
32.54249
32.58103
32.62827
32.60339
32.67171
32.58023
32.61817
32.63632
32.66315
32.65644
32.64411
32.55095
32.60505
32.53518
32.54715
32.55378
32.57283
32.56986
32.50055
32.49554
32.50716
32.48446
32.50226
32.52383
32.51947
32.50194
32.4968
32.4859
32.49264
32.50387
32.50821
32.48736
32.49418
32.49912
32.4883
32.51105
32.47031
32.46708
32.49589
32.45998
32.47321
32.49089
32.48878
32.47207
32.46871
32.49008
32.52794
32.50285
32.51099
32.46166
32.51063
32.49239
32.52743
32.50527
32.48968
32.50487
32.46803
32.49479
32.48511
32.44257
32.45993
32.50839
32.53862
32.47066
32.49724
32.48927
32.51889
32.51713
32.51312
32.53405
32.55045
32.4694
32.45976
32.52141
32.55027
32.48108
32.4612
32.4205
32.44581
32.40555
32.40067
32.4164
32.53288
32.4717
32.42196
32.49161
32.48564
32.51953
32.48705
32.48546
32.4489
32.46234
32.44559
32.51046
32.46176
32.4512
32.46616
32.36127
32.39314
32.40807
32.31163
32.34969
32.43093
32.37953
32.42492
32.44363
32.45641
32.34511
32.40041
32.30357
32.40438
32.43114
32.22653
32.28712
32.40588
32.3094
32.25884
32.28914
32.42854
32.47421
32.42331
32.41798
32.34619
32.35663
32.38974
32.36745
32.38772
32.40296
32.40029
32.36497
32.33781
32.41736
32.40505
32.39411
32.40311
32.40921
32.39081
32.42239
32.42422
32.41416
32.44489
32.41021
32.37839
32.36759
32.34982
32.34465
32.37907
32.36834
32.41572
32.44674
32.42504
32.42657
33.26598
33.10233
33.18092
33.44284
33.2662
33.10255
33.07226
33.31343
33.09629
33.08224
33.15986
33.17434
33.09651
33.08246
33.0463
33.06302
33.06179
33.03649
33.11338
33.13895
33.06203
33.03674
32.99673
33.02378
33.00773
32.97675
33.05378
33.0846
33.00799
32.97703
32.93291
32.96613
32.94478
32.91338
32.98942
33.02181
32.94508
32.91369
32.86358
32.89821
32.88485
32.864
32.92945
32.95774
32.83134
32.88518
32.86436
32.8055
32.86728
32.90074
32.90756
32.91443
32.86766
32.90115
32.84671
32.81952
32.79567
32.83896
32.88069
32.86975
32.83876
32.79849
32.75897
32.74857
32.79415
32.66972
32.70545
32.73308
32.71967
32.67437
32.65236
32.6948
32.65817
32.63569
32.66667
32.6168
32.57545
32.72185
32.69552
32.63636
32.66731
32.59176
32.60383
32.53951
32.51792
32.66164
32.63576
32.59249
32.60452
32.61306
32.57005
32.58682
32.56254
32.60846
32.52481
32.50859
32.54839
32.56365
32.54949
32.56927
32.6109
32.57956
32.55043
32.57029
32.52836
32.5469
32.53285
32.57509
32.55996
32.53922
32.53945
32.46411
32.49847
32.45398
32.41856
32.44805
32.54886
32.4826
32.46551
32.49977
32.46191
32.48636
32.50194
32.48505
32.46338
32.48794
32.47907
32.44791
32.46325
32.49556
32.48501
32.48675
32.46061
32.48661
32.50512
32.51052
32.49742
32.48672
32.47771
32.47695
32.48625
32.49304
32.47966
32.47902
32.46954
32.44685
32.48611
32.43346
32.44462
32.4561
32.40409
32.42291
32.45651
32.43684
32.43583
32.44682
32.37675
32.35648
32.42996
32.38234
32.37922
32.35905
32.35152
32.33544
32.3995
32.42162
32.36132
32.39154
32.42119
32.42425
32.38449
32.3922
32.39431
32.41095
32.32886
32.33185
32.42973
32.47356
32.39793
32.41419
32.49196
32.51163
32.45231
32.44336
32.45947
32.48134
32.51381
32.46238
32.49637
32.51574
32.37652
32.33516
32.42018
32.49822
32.4371
32.37478
32.30301
32.37568
32.35688
32.3273
32.31779
32.37968
32.30814
32.3174
32.42246
32.44888
32.48543
32.487
32.51948
32.48559
32.40592
32.35293
32.4631
32.45249
32.403
32.40223
32.32142
32.30826
32.32141
32.40222
32.41846
32.33689
32.31124
32.25444
32.29466
32.27888
32.35924
32.39108
32.33782
32.37063
32.36011
32.33611
32.18096
32.28807
32.24931
32.14747
32.12295
32.34515
32.31747
32.18934
32.29597
32.34083
32.22002
32.16524
32.21991
32.33892
32.36142
32.39419
32.44593
32.34803
32.34877
32.39014
32.30573
32.38587
32.40472
32.39667
32.31243
32.28911
32.38643
32.35878
32.27606
32.34414
32.22302
32.20423
32.27725
32.27984
32.37891
32.35222
32.35527
32.34066
32.38319
32.35634
32.28139
32.34977
32.25619
32.33476
32.28245
32.29214
32.3101
32.28232
32.33057
32.30374
32.35189
32.34393
32.3436
32.33447
32.35554
32.34724
32.33473
32.3081
32.26049
32.33883
32.28145
32.22576
32.2547
32.27937
32.29344
32.34056
32.3279
32.31493
32.27552
32.34004
32.32294
32.25341
32.27668
32.34137
32.34309
32.33073
32.29747
32.28509
33.43246
33.17136
33.1008
33.35978
33.16022
33.1406
33.10561
33.10049
33.11564
33.08718
33.11538
33.11819
33.05535
33.02018
33.05599
33.08881
32.98255
32.94384
32.98049
33.01942
32.90532
32.86765
32.90031
32.94047
32.83117
32.79226
32.82033
32.86032
32.74775
32.70119
32.73648
32.77951
32.65615
32.61756
32.64562
32.69114
32.5966
32.61446
32.5622
32.60311
32.60379
32.59615
32.65438
32.66849
32.60448
32.59688
32.50502
32.52515
32.61914
32.56056
32.59145
32.61925
32.64459
32.5434
32.5812
32.58707
32.56451
32.46131
32.50339
32.52628
32.48294
32.46108
32.43379
32.43816
32.40272
32.42885
32.51964
32.5122
32.51928
32.48753
32.5473
32.54773
32.52046
32.48863
32.49411
32.45279
32.43595
32.5303
32.41692
32.4964
32.45347
32.44689
32.46502
32.35624
32.37102
32.37562
32.38283
32.3772
32.41554
32.42554
32.38467
32.37889
32.3987
32.39818
32.44
32.43868
32.40065
32.40025
32.39341
32.3989
32.38803
32.38983
32.38767
32.37972
32.38851
32.40152
32.44021
32.43085
32.39096
32.40377
32.37778
32.35457
32.39221
32.41143
32.38036
32.35729
32.34501
32.35526
32.36935
32.31617
32.29823
32.29141
32.30475
32.33293
32.36414
32.33512
32.30785
32.33583
32.33858
32.29271
32.31981
32.3649
32.32402
32.39455
32.36761
32.39001
32.4331
32.37167
32.3502
32.31982
32.28518
32.29728
32.39835
32.33025
32.35725
32.34791
32.40763
32.36847
32.30722
32.37493
32.27994
32.26985
32.36624
32.30978
32.40536
32.40878
32.31268
32.3801
32.33038
32.33706
32.4148
32.34431
32.34778
32.42526
32.46584
32.44558
32.354
32.43115
32.33572
32.43435
32.3533
32.34013
32.34318
32.33052
32.46019
32.42065
32.34267
32.44092
32.31099
32.32844
32.41367
32.31194
32.29935
32.39878
32.46499
32.44859
32.30712
32.40612
32.36126
32.43091
32.34967
32.31162
32.40806
32.39312
32.31312
32.25645
32.2537
32.31653
32.40847
32.35341
32.22285
32.34024
32.37299
32.34878
32.21569
32.1361
32.12722
32.1361
32.21568
32.24528
32.34472
32.349
32.32762
32.24975
32.27571
32.32796
32.32301
32.30368
32.32976
32.37063
32.2903
32.28193
32.23497
32.23669
32.2568
32.28507
32.15379
32.19282
32.2073
32.18692
32.17047
32.24459
32.25295
32.25797
32.22051
32.25415
32.2628
32.23512
32.23559
32.16283
32.18713
32.24815
32.22535
32.26689
32.23208
32.25557
32.23345
32.18202
32.24802
32.23331
32.27494
32.19708
32.25318
32.2629
32.26297
32.28428
32.28909
32.28784
32.30371
32.30451
32.29095
32.28957
32.2663
32.28787
32.25834
32.26786
32.28134
32.20318
32.22885
32.24811
32.2725
32.26861
32.214
32.21024
32.23858
32.21639
32.23364
32.2336
32.25191
32.23564
32.21582
32.8862
33.09082
33.07838
32.87911
32.91822
32.8945
32.89034
32.91428
33.0217
32.99014
33.01138
33.06168
33.0207
33.07401
33.02197
32.9904
33.08084
33.06471
33.06139
33.01811
33.0551
33.02941
32.98839
32.97243
33.01925
32.94521
32.9018
32.87778
32.9248
32.83209
32.85921
32.81781
32.78811
32.7769
32.73469
32.702
32.74528
32.68997
32.6436
32.61119
32.65719
32.59756
32.55387
32.52202
32.56547
32.48334
32.51469
32.48315
32.45331
32.46125
32.45545
32.45566
32.44027
32.5839
32.51639
32.54835
32.53401
32.59
32.49565
32.54409
32.54387
32.48806
32.4304
32.38529
32.4041
32.44412
32.45585
32.42073
32.3948
32.47489
32.51011
32.45079
32.42776
32.43591
32.45592
32.38614
32.36769
32.44276
32.44774
32.38777
32.36943
32.35381
32.34099
32.32523
32.38382
32.37065
32.36732
32.37996
32.40456
32.41883
32.34014
32.27888
32.40933
32.32446
32.38126
32.29922
32.27695
32.26327
32.36825
32.30387
32.25054
32.27053
32.28869
32.32746
32.32575
32.25063
32.23056
32.34682
32.35886
32.31008
32.28515
32.32307
32.30456
32.34252
32.35969
32.30645
32.31775
32.37664
32.37663
32.32054
32.22571
32.2443
32.28495
32.34928
32.36538
32.352
32.36227
32.38215
32.38877
32.30295
32.36575
32.26378
32.39063
32.43046
32.21968
32.24767
32.37237
32.27076
32.25053
32.28176
32.34412
32.25462
32.30005
32.336
32.28065
32.30263
32.34041
32.30582
32.4087
32.44577
32.30211
32.25514
32.34894
32.31498
32.28797
32.33921
32.39755
32.3316
32.42174
32.42643
32.42991
32.25507
32.2889
32.40729
32.34281
32.26873
32.44362
32.42492
32.37953
32.3451
32.4564
32.34075
32.36453
32.33334
32.29668
32.23324
32.26185
32.14746
32.2493
32.28805
32.18095
32.12294
32.2757
32.24973
32.3276
32.34899
32.34472
32.32795
32.35124
32.26026
32.25601
32.23747
32.27256
32.20266
32.19241
32.1924
32.20266
32.21489
32.17075
32.18178
32.20814
32.22475
32.22329
32.11631
32.11179
32.17957
32.17974
32.14969
32.19959
32.1924
32.1713
32.20654
32.20813
32.13337
32.147
32.15663
32.21493
32.05362
32.13765
32.19441
32.24128
32.13313
32.15702
32.17223
32.11423
32.07039
32.13161
32.14515
32.16217
32.18223
32.17034
32.1851
32.13851
32.15672
32.15224
32.15751
32.16129
32.14384
32.1999
32.20974
32.19505
32.21856
32.20838
32.21867
32.14908
32.16694
32.19846
32.18212
32.22776
32.24605
32.24122
32.23049
32.24851
32.25976
32.20335
32.18748
32.18274
32.21306
32.18213
33.23933
33.13029
33.00597
33.01538
33.01352
33.01273
33.02859
33.01001
33.0299
33.0925
32.93498
32.98236
33.03412
33.05809
32.99943
32.87005
32.90266
32.9523
32.90636
32.80026
32.83578
32.86126
32.81641
32.72561
32.76366
32.77163
32.72723
32.64394
32.68572
32.68346
32.64007
32.5619
32.60147
32.59688
32.55408
32.49946
32.5289
32.51257
32.47476
32.45617
32.47287
32.44673
32.43996
32.55215
32.51522
32.51451
32.5328
32.58845
32.5586
32.55883
32.52442
32.56127
32.54509
32.47537
32.44381
32.50367
32.41707
32.36111
32.3452
32.38595
32.31515
32.30981
32.4322
32.48256
32.45984
32.47283
32.38241
32.51169
32.394
32.33685
32.43549
32.38373
32.41318
32.40808
32.40348
32.34499
32.34954
32.29235
32.28849
32.33531
32.37901
32.26433
32.30028
32.32083
32.26546
32.27583
32.2465
32.24765
32.31823
32.28477
32.26673
32.33023
32.2658
32.25877
32.32955
32.36411
32.35081
32.25994
32.24203
32.25912
32.34614
32.30095
32.29718
32.26029
32.32289
32.18952
32.25159
32.23695
32.18202
32.20724
32.27457
32.29289
32.34454
32.37125
32.36311
32.29302
32.29741
32.2985
32.21997
32.2353
32.21102
32.27941
32.33263
32.35312
32.33556
32.30018
32.27956
32.35463
32.38144
32.39484
32.39341
32.38096
32.36508
32.37724
32.39153
32.40136
32.40479
32.40118