
21909
(
16.38219
16.4715
16.50188
16.46135
16.46711
16.46033
16.49435
16.49896
16.41607
16.43879
16.44978
16.44334
16.49146
16.44358
16.44457
16.41871
16.37375
16.42567
16.44626
16.36501
16.37375
16.42567
16.45268
16.35872
16.41531
16.41453
16.44356
16.44003
16.41531
16.41453
16.39995
16.39838
16.44466
16.43572
16.43907
16.36077
16.35263
16.38419
16.4163
16.35773
16.3704
16.42064
16.37499
16.38419
16.4163
16.41418
16.40879
16.37864
16.38257
16.41265
16.42462
16.41418
16.40879
16.41879
16.41684
16.38608
16.3898
16.43007
16.43281
16.41879
16.41684
16.42262
16.42085
16.39412
16.39901
16.43445
16.43465
16.42261
16.42084
16.41639
16.42252
16.40287
16.41789
16.43087
16.41462
16.41639
16.42251
16.42794
16.41605
16.43882
16.44698
16.41003
16.40336
16.42793
16.41604
16.40019
16.41645
16.4294
16.41073
16.40018
16.41645
16.39206
16.42841
16.44072
16.41518
16.41225
16.4242
16.41806
16.41517
16.41225
16.40557
16.39973
16.41714
16.41605
16.36255
16.42663
16.45341
16.36842
16.36254
16.42662
16.40993
16.41714
16.41604
16.40709
16.43166
16.45078
16.38552
16.36771
16.37941
16.38571
16.38552
16.36771
16.43165
16.45078
16.48455
16.46641
16.39836
16.40224
16.3897
16.38897
16.3492
16.35058
16.37948
16.35515
16.3492
16.35058
16.39836
16.40224
16.44135
16.46732
16.43904
16.41472
16.36441
16.38948
16.36738
16.39983
16.41433
16.36968
16.36738
16.39983
16.36441
16.38948
16.43904
16.41472
16.37384
16.37217
16.32697
16.34599
16.34037
16.30674
16.2986
16.34187
16.34566
16.29338
16.2986
16.34187
16.34037
16.30674
16.32697
16.34599
16.37384
16.37217
16.3964
16.40897
16.31278
16.31295
16.32861
16.2996
16.32894
16.28181
16.31343
16.32861
16.29959
16.32894
16.31278
16.31861
16.34572
16.35503
16.30483
16.41834
16.33094
16.21949
16.32904
16.4184
16.41743
16.32613
16.41377
16.41017
16.34779
16.33342
16.40858
16.40861
16.3571
16.35319
16.40954
16.411
16.36413
16.36068
16.36769
16.41286
16.41504
16.37181
16.41739
16.41935
16.38335
16.37694
16.41855
16.37925
16.39689
16.39061
16.35831
16.35677
16.35552
16.34949
16.35831
16.35677
16.40311
16.40048
16.35888
16.35802
16.37048
16.36397
16.35888
16.35802
16.40403
16.40541
16.40833
16.38628
16.36055
16.36106
16.32531
16.42616
16.41903
16.33986
16.36669
16.38399
16.39593
16.37441
16.3948
16.40263
16.37162
16.3744
16.3948
16.3778
16.37589
16.40533
16.41186
16.38317
16.39217
16.3778
16.37588
16.40826
16.42243
16.33866
16.37653
16.38369
16.3644
16.32651
16.32803
16.36784
16.36439
16.32651
16.34934
16.33905
16.33982
16.33781
16.35489
16.33359
16.34297
16.35195
16.34543
16.33982
16.33781
16.36114
16.36086
16.3459
16.37341
16.36085
16.33552
16.31988
16.3522
16.37177
16.36114
16.36562
16.34033
16.32011
16.34186
16.35041
16.31874
16.32315
16.27609
16.30582
16.29854
16.27677
16.27609
16.30582
16.31874
16.32314
16.36561
16.34033
16.26629
16.24003
16.26599
16.28675
16.25421
16.22962
16.24003
16.26599
16.28675
16.26629
16.26736
16.2827
16.30954
16.39345
16.29347
16.28628
16.38859
16.37218
16.3864
16.38285
16.36855
16.28775
16.3196
16.32892
16.30675
16.31161
16.27162
16.28775
16.3196
16.2783
16.29423
16.26304
16.2999
16.27384
16.26981
16.30376
16.31166
16.27773
16.31853
16.32501
16.29264
16.28545
16.33153
16.33815
16.30534
16.29929
16.34491
16.35203
16.31743
16.3111
16.32505
16.35975
16.36813
16.33406
16.37691
16.38503
16.35395
16.34396
16.38938
16.38418
16.36893
16.36293
16.33528
16.30273
16.28999
16.33051
16.33528
16.30273
16.35269
16.36755
16.33105
16.30381
16.29289
16.31077
16.28229
16.37312
16.35259
16.30229
16.32455
16.38297
16.38873
16.34595
16.35856
16.26872
16.2764
16.26774
16.30686
16.3292
16.3052
16.28233
16.26775
16.30687
16.32567
16.31307
16.31648
16.2758
16.32377
16.31742
16.30235
16.31642
16.31553
16.32169
16.33994
16.30618
16.29925
16.30903
16.30884
16.31286
16.33157
16.31972
16.29111
16.29439
16.32259
16.29816
16.30884
16.31285
16.29555
16.29016
16.29636
16.27836
16.24836
16.27365
16.29911
16.28514
16.29555
16.29016
16.25072
16.2915
16.27586
16.25766
16.2415
16.24578
16.25956
16.23
16.23229
16.21597
16.21141
16.23
16.23229
16.24578
16.25956
16.23666
16.2415
16.25072
16.15685
16.26576
16.33957
16.28525
16.28164
16.33296
16.31543
16.27276
16.31303
16.27865
16.24625
16.25752
16.27984
16.26342
16.25599
16.24939
16.24684
16.25877
16.26369
16.25716
16.25296
16.26168
16.26933
16.275
16.26622
16.28039
16.28537
16.27544
16.27077
16.29025
16.29595
16.2872
16.28066
16.3033
16.31226
16.30476
16.29546
16.31377
16.32213
16.3321
16.32323
16.34122
16.34794
16.33397
16.33222
16.35117
16.34743
16.30218
16.3127
16.26067
16.30023
16.28877
16.30464
16.25814
16.27001
16.28633
16.29596
16.27592
16.33147
16.31699
16.30429
16.31623
16.25989
16.31638
16.29743
16.26597
16.23071
16.28137
16.25792
16.26505
16.24099
16.27528
16.25635
16.25415
16.25995
16.304
16.27528
16.25634
16.27872
16.28891
16.3032
16.30827
16.27652
16.27178
16.27621
16.31804
16.26782
16.28187
16.27806
16.31809
16.27083
16.28231
16.27285
16.29045
16.29828
16.27386
16.283
16.27083
16.28231
16.30481
16.32537
16.31212
16.25528
16.27637
16.25553
16.22416
16.2408
16.25768
16.28929
16.24072
16.24538
16.24081
16.25768
16.28929
16.25553
16.30669
16.32685
16.30067
16.22392
16.26084
16.24653
16.25576
16.23399
16.23261
16.19586
16.17418
16.23479
16.21816
16.16299
16.17418
16.23479
16.23262
16.19586
16.23399
16.22392
16.10646
16.2345
16.26686
16.14779
16.23576
16.23862
16.26927
16.26745
16.24188
16.24504
16.27469
16.27175
16.2484
16.25236
16.28182
16.27804
16.2569
16.26169
16.28986
16.28588
16.26635
16.27064
16.29336
16.29295
16.27451
16.27963
16.26083
16.28628
16.28772
16.29732
16.26177
16.25615
16.30693
16.3145
16.27538
16.2696
16.31448
16.29405
16.27793
16.24331
16.26915
16.2902
16.25441
16.25063
16.28396
16.2692
16.29482
16.26049
16.24489
16.24653
16.26257
16.2615
16.25697
16.26796
16.28766
16.27364
16.28059
16.29484
16.31288
16.30268
16.30185
16.27959
16.22981
16.28981
16.25656
16.22635
16.23002
16.20761
16.22405
16.24264
16.24762
16.2679
16.23254
16.22886
16.27121
16.25075
16.26466
16.2596
16.24572
16.23457
16.24411
16.2988
16.28885
16.22532
16.30158
16.2835
16.28497
16.25898
16.30172
16.25137
16.27804
16.22603
16.24594
16.28352
16.24939
16.26436
16.26446
16.24448
16.27746
16.28964
16.25501
16.24631
16.26436
16.26446
16.24358
16.23425
16.25223
16.24944
16.23913
16.23953
16.23648
16.22933
16.24359
16.23425
16.2451
16.24475
16.24099
16.245
16.21122
16.22242
16.20648
16.22178
16.20604
16.22242
16.20648
16.19236
16.21122
16.2451
16.17137
16.19958
16.18786
16.20556
16.20044
16.15797
16.18482
16.20044
16.17137
16.16553
16.07749
16.20832
16.24892
16.24784
16.20734
16.20779
16.24823
16.24958
16.20925
16.2113
16.25158
16.25402
16.21367
16.21622
16.25671
16.25946
16.21885
16.22148
16.26188
16.26308
16.2238
16.22453
16.26077
16.24611
16.21842
16.20795
16.21371
16.22233
16.22089
16.206
16.21375
16.23655
16.22921
16.22355
16.23442
16.23231
16.23741
16.24493
16.25277
16.24096
16.23249
16.25229
16.23192
16.26486
16.25255
16.22742
16.23348
16.27878
16.27513
16.24071
16.2379
16.24753
16.26009
16.25743
16.22634
16.22893
16.25584
16.23481
16.22716
16.22333
16.20939
16.21405
16.21609
16.23544
16.21185
16.19914
16.21128
16.22331
16.21144
16.22912
16.22595
16.19985
16.23292
16.25022
16.26348
16.24908
16.24152
16.24505
16.25473
16.22069
16.22377
16.23464
16.21892
16.28481
16.28152
16.27019
16.22605
16.25128
16.27073
16.27776
16.28496
16.27706
16.28325
16.23864
16.27897
16.28781
16.27669
16.22593
16.21869
16.26936
16.29694
16.27494
16.2702
16.24054
16.27957
16.26754
16.2199
16.22873
16.23411
16.27517
16.22534
16.21785
16.21151
16.19232
16.22331
16.27191
16.22534
16.21785
16.22712
16.22844
16.20271
16.18531
16.17729
16.20153
16.19095
16.2011
16.15507
16.14771
16.15792
16.16733
16.14883
16.15138
16.15792
16.16733
16.2011
16.15507
16.19095
16.20271
16.19505
16.06772
16.11673
16.23093
16.19788
16.19573
16.23161
16.2336
16.20357
16.20067
16.23612
16.23823
16.20735
16.20606
16.23781
16.23044
16.21244
16.2087
16.20095
16.18885
16.22145
16.21766
16.18912
16.19008
16.15363
16.18524
16.19811
16.21786
16.1798
16.1625
16.19225
16.19567
16.16323
16.16984
16.20291
16.21098
16.17817
16.18663
16.21821
16.22283
16.19429
16.1955
16.21541
16.19067
16.19267
16.19712
16.20026
16.20169
16.19571
16.20359
16.20807
16.21198
16.19422
16.21444
16.22709
16.20439
16.19522
16.24272
16.24319
16.20717
16.2133
16.21268
16.19491
16.16652
16.19099
16.18226
16.1922
16.18156
16.17079
16.18178
16.22932
16.21669
16.19174
16.2014
16.2107
16.22704
16.21795
16.20313
16.19883
16.2166
16.22656
16.20335
16.19896
16.2225
16.21679
16.22046
16.21775
16.22128
16.21452
16.2246
16.25505
16.2215
16.22642
16.22296
16.22613
16.29089
16.28002
16.23783
16.23399
16.21779
16.22687
16.22697
16.24802
16.2364
16.24491
16.30385
16.27629
16.26904
16.30122
16.29049
16.26461
16.27973
16.277
16.25687
16.23732
16.24324
16.27212
16.27555
16.26598
16.22358
16.23121
16.23235
16.21641
16.22583
16.25842
16.2567
16.21957
16.19266
16.15928
16.14935
16.15429
16.1492
16.14372
16.17785
16.15429
16.1492
16.19266
16.15928
16.21957
16.21641
16.21801
16.12098
16.09377
16.18673
16.2196
16.21816
16.18663
16.18765
16.18953
16.19225
16.22428
16.22181
16.22325
16.22573
16.19593
16.20058
16.183
16.19601
16.20557
16.21028
16.18428
16.16158
16.18298
16.19599
16.19142
16.18657
16.2152
16.21969
16.16094
16.16387
16.1914
16.18655
16.18388
16.19071
16.2205
16.19124
16.18176
16.16057
16.15448
16.18386
16.19069
16.15626
16.16407
16.15412
16.15446
16.15975
16.17365
16.1843
16.17261
16.19569
16.20764
16.19526
16.18384
16.21918
16.22767
16.21695
16.20663
16.2294
16.19992
16.18949
16.20437
16.22418
16.17433
16.15981
16.15406
16.15165
16.17387
16.16664
16.16577
16.18535
16.18838
16.18485
16.20584
16.21762
16.14764
16.17026
16.1882
16.1257
16.13019
16.12209
16.14962
16.14829
16.13587
16.16213
16.1886
16.16454
16.15376
16.19414
16.17799
16.16504
16.17746
16.18504
16.17527
16.17008
16.16098
16.16776
16.16544
16.18153
16.19301
16.19394
16.18157
16.21573
16.19523
16.20137
16.22356
16.24666
16.24004
16.22842
16.24113
16.24825
16.24141
16.25396
16.25532
16.24906
16.22359
16.20286
16.23335
16.27672
16.23386
16.21221
16.2428
16.2536
16.2434
16.20416
16.19847
16.24024
16.25857
16.3019
16.28696
16.28586
16.22306
16.22683
16.21242
16.18395
16.27521
16.28817
16.22306
16.22683
16.26896
16.26574
16.20143
16.22988
16.1838
16.21329
16.18885
16.17162
16.20133
16.1645
16.18885
16.20144
16.17571
16.08322
16.07603
16.17042
16.17533
16.17509
16.16939
16.16894
16.17752
16.17616
16.16866
16.16876
16.18195
16.17944
16.16959
16.17135
16.18914
16.18512
16.17404
16.17767
16.19973
16.19404
16.18224
16.18766
16.21109
16.20574
16.19379
16.20045
16.21437
16.21453
16.20741
16.21398
16.16793
16.18787
16.21865
16.21804
16.16762
16.1418
16.16791
16.18785
16.14434
16.15593
16.1403
16.16574
16.15555
16.16867
16.18263
16.16101
16.14831
16.17517
16.19713
16.2107
16.1897
16.21936
16.19613
16.21635
16.20382
16.17929
16.17612
16.17621
16.16327
16.17926
16.1761
16.18242
16.19875
16.22386
16.16399
16.17736
16.2111
16.19884
16.14181
16.18548
16.16588
16.13176
16.11701
16.12334
16.16166
16.16189
16.1183
16.13401
16.13942
16.14907
16.15032
16.14861
16.16714
16.15954
16.16238
16.1532
16.15409
16.15619
16.15008
16.15503
16.14671
16.15339
16.16202
16.15023
16.15064
16.15868
16.17017
16.17709
16.19063
16.16806
16.16816
16.21039
16.2235
16.21857
16.18777
16.19915
16.22591
16.20469
16.2271
16.23969
16.21456
16.20847
16.23732
16.22774
16.24603
16.23761
16.26834
16.27733
16.22594
16.20205
16.21144
16.24686
16.21118
16.2416
16.28399
16.28414
16.26551
16.25277
16.2399
16.22334
16.22263
16.24122
16.25447
16.25573
16.25984
16.24326
16.22922
16.22642
16.24589
16.20845
16.21767
16.19381
16.23141
16.21927
16.25968
16.21723
16.20845
16.21767
16.2619
16.15178
16.20643
16.17326
16.08242
16.15179
16.20644
16.25581
16.17471
16.19495
16.17579
16.16144
16.16694
16.19496
16.17579
16.18761
16.2098
16.24613
16.15564
16.14871
16.15919
16.15952
16.16182
16.16001
16.14871
16.15087
16.16856
16.16468
16.15484
16.15994
16.17895
16.17334
16.16569
16.17194
16.1787
16.18601
16.1924
16.18532
16.20789
16.20004
16.19388
16.20216
16.22093
16.21532
16.21049
16.21813
16.18801
16.22121
16.22356
16.22333
16.16994
16.16048
16.14142
16.14887
16.14381
16.16176
16.17649
16.16581
16.1521
16.19189
16.20725
16.19913
16.18201
16.22122
16.22973
16.22986
16.21588
16.20373
16.17718
16.1612
16.18376
16.23255
16.20375
16.17721
16.1843
16.19371
16.14676
16.15086
16.14042
16.13922
16.12913
16.14223
16.12667
16.11913
16.13784
16.14887
16.12234
16.13195
16.15496
16.1462
16.14681
16.14397
16.14959
16.13517
16.16633
16.15539
16.14237
16.14078
16.14678
16.15954
16.14413
16.15644
16.15205
16.15074
16.13058
16.15889
16.16025
16.16766
16.15178
16.194
16.18945
16.16209
16.20288
16.16769
16.1848
16.18976
16.18329
16.18374
16.16127
16.18473
16.19825
16.17847
16.20285
16.23262
16.21098
16.23561
16.18896
16.19131
16.20073
16.20746
16.28443
16.27359
16.25291
16.22516
16.2284
16.25158
16.20453
16.20266
16.19385
16.19299
16.19985
16.20363
16.23149
16.24444
16.22664
16.21109
16.20277
16.21685
16.21238
16.21112
16.18504
16.22353
16.18404
16.255
16.26332
16.21238
16.21112
16.2589
16.17267
16.25827
16.25578
16.17468
16.24609
16.25304
16.24278
16.20975
16.18201
16.22362
16.17406
16.17259
16.16188
16.14099
16.13877
16.13862
16.14081
16.15345
16.14667
16.14647
16.15322
16.16736
16.16038
16.16012
16.16706
16.18201
16.17451
16.17419
16.18168
16.19834
16.18996
16.18963
16.19802
16.21526
16.20695
16.20665
16.215
16.22599
16.2223
16.22208
16.22581
16.17683
16.22266
16.22251
16.17668
16.1741
16.14458
16.15705
16.15322
16.141
16.17061
16.17398
16.1925
16.18973
16.21086
16.22674
16.22523
16.20869
16.23207
16.19314
16.18115
16.19202
16.23119
16.13421
16.13564
16.13322
16.13043
16.14544
16.14382
16.16549
16.17321
16.15769
16.11576
16.1219
16.14545
16.14385
16.17088
16.1724
16.17901
16.15799
16.17732
16.16705
16.17603
16.15983
16.18245
16.17412
16.15597
16.16058
16.14783
16.13322
16.17189
16.15597
16.16056
16.18136
16.19121
16.14399
16.1428
16.15148
16.13691
16.16774
16.12896
16.11873
16.13764
16.15348
16.12338
16.13164
16.1457
16.15247
16.12221
16.16476
16.1957
16.19406
16.19304
16.14985
16.17745
16.17952
16.18444
16.21162
16.21216
16.16742
16.21713
16.20294
16.19641
16.18799
16.16462
16.21127
16.19733
16.24882
16.24268
16.19059
16.22771
16.22704
16.20083
16.16495
16.18784
16.25698
16.21272
16.19827
16.20321
16.22101
16.25113
16.23415
16.1881
16.19046
16.1852
16.18349
16.18628
16.18685
16.24078
16.2278
16.2121
16.19833
16.20916
16.22459
16.19971
16.20413
16.19769
16.15534
16.18926
16.17164
16.19971
16.19424
16.15168
16.17164
16.15172
16.08236
16.1732
16.20636
16.19487
16.16687
16.16135
16.17568
16.1594
16.15904
16.14849
16.15548
16.15052
16.14842
16.15983
16.16161
16.15951
16.15445
16.16443
16.16828
16.17139
16.1652
16.17302
16.17859
16.18494
16.19202
16.18541
16.17811
16.2016
16.19329
16.19967
16.20755
16.21769
16.20997
16.21501
16.22067
16.223
16.22318
16.22098
16.18781
16.16972
16.18899
16.16187
16.14363
16.14439
16.15686
16.16566
16.15195
16.17378
16.19226
16.19894
16.18184
16.21058
16.22645
16.22962
16.21566
16.1928
16.1823
16.19344
16.23229
16.23178
16.13025
16.13307
16.13538
16.13389
16.17309
16.16534
16.14353
16.14519
16.1575
16.16838
16.17579
16.15548
16.17729
16.17081
16.17331
16.1647
16.16456
16.17314
16.15254
16.16517
16.16703
16.18173
16.16137
16.17849
16.17702
16.20023
16.18753
16.1634
16.15338
16.12081
16.13883
16.16331
16.15325
16.1517
16.15904
16.16332
16.13879
16.1603
16.12235
16.12811
16.1485
16.17603
16.19265
16.16582
16.14876
16.12867
16.12274
16.13485
16.13943
16.1587
16.13673
16.12894
16.13012
16.12101
16.1611
16.1225
16.12979
16.14407
16.15196
16.1463
16.11351
16.17608
16.17504
16.15636
16.1431
16.12541
16.16589
16.16986
16.21172
16.21456
16.1615
16.2032
16.20561
16.20336
16.21484
16.26236
16.27949
16.25811
16.19783
16.18946
16.19912
16.21673
16.23676
16.21501
16.18499
16.19103
16.18798
16.18613
16.18589
16.183
16.23026
16.23811
16.23284
16.22309
16.20682
16.21703
16.1716
16.19708
16.17997
16.2166
16.1784
16.16659
16.14906
16.12121
16.12172
16.14905
16.12121
16.17839
16.17159
16.14497
16.17039
16.076
16.08321
16.17571
16.1689
16.16936
16.17508
16.17533
16.16871
16.16862
16.17615
16.17751
16.17943
16.18193
16.17128
16.16953
16.17756
16.17395
16.1851
16.18911
16.18752
16.18211
16.19401
16.1997
16.20031
16.19365
16.20572
16.21107
16.21452
16.21436
16.21387
16.20727
16.21795
16.21855
16.18786
16.16791
16.1657
16.18533
16.15748
16.14027
16.14131
16.1488
16.161
16.14829
16.1617
16.17643
16.1897
16.17517
16.19184
16.20719
16.21635
16.20381
16.22115
16.22965
16.19874
16.22386
16.20367
16.18372
16.16117
16.17712
16.13904
16.14027
16.15083
16.14673
16.11906
16.13205
16.11552
16.12173
16.12662
16.15052
16.17233
16.17898
16.16294
16.15133
16.17586
16.16684
16.17403
16.18238
16.15972
16.18163
16.16932
16.19114
16.1718
16.16689
16.20013
16.17694
16.15325
16.16324
16.18736
16.15088
16.12837
16.14865
16.12821
16.15074
16.17994
16.18903
16.18349
16.16488
16.14894
16.15966
16.11813
16.09958
16.09228
16.12341
16.11947
16.14133
16.09827
16.1102
16.10744
16.10746
16.12089
16.0875
16.11097
16.13702
16.13429
16.09141
16.11305
16.14864
16.1166
16.15308
16.19447
16.17118
16.13918
16.15143
16.1314
16.15434
16.20412
16.16411
16.19771
16.15139
16.20457
16.20881
16.20526
16.20587
16.21018
16.15191
16.17277
16.22963
16.20909
16.20291
16.22945
16.25078
16.26016
16.22873
16.20857
16.21669
16.21903
16.2117
16.19568
16.19678
16.17585
16.16662
16.16666
16.17709
16.13989
16.23427
16.23172
16.17584
16.16662
16.19751
16.1391
16.14775
16.12285
16.13232
16.12902
16.11561
16.11091
16.08231
16.08131
16.13232
16.11091
16.08231
16.12285
16.1391
16.14775
16.13578
16.1411
16.16898
16.18674
16.09378
16.12099
16.21802
16.21818
16.21961
16.18766
16.18664
16.19226
16.18954
16.22183
16.2243
16.20059
16.19593
16.22574
16.22327
16.21029
16.20558
16.19602
16.18301
16.18659
16.19144
16.21971
16.21521
16.19127
16.22052
16.19073
16.18391
16.18179
16.15449
16.1725
16.16684
16.15414
16.16763
16.14181
16.17263
16.15977
16.15658
16.18386
16.14435
16.15594
16.19528
16.16868
16.18264
16.21696
16.20664
16.19714
16.21071
16.20439
16.22419
16.21937
16.19614
16.18684
16.1871
16.18955
16.17929
16.16328
16.17622
16.17613
16.17736
16.16399
16.19886
16.21112
16.13177
16.16589
16.1855
16.14183
16.11702
16.12913
16.14223
16.1619
16.11831
16.12217
16.13193
16.12232
16.14887
16.14621
16.15496
16.13517
16.15769
16.1623
16.14958
16.15594
16.13321
16.14782
16.16054
16.12075
16.13874
16.15146
16.13689
16.14373
16.16011
16.13858
16.16319
16.15897
16.15164
16.18317
16.16466
16.16014
16.1759
16.19246
16.19543
16.10959
16.14245
16.1234
16.11941
16.12292
16.17188
16.18202
16.18589
16.18202
16.17186
16.16668
16.1171
16.08412
16.09861
16.13198
16.12008
16.15209
16.15418
16.18762
16.14696
16.16842
16.17354
16.16511
16.20881
16.13675
16.15924
16.14361
16.12205
16.14127
16.16358
16.21415
16.1622
16.21502
16.21149
16.1623
16.20723
16.17569
16.15336
16.15514
16.15832
16.2091
16.18158
16.24086
16.2601
16.25843
16.21453
16.16604
16.21116
16.18766
16.15717
16.21373
16.2557
16.25223
16.21116
16.18766
16.18656
16.20961
16.19317
16.2017
16.17986
16.16233
16.18656
16.17061
16.16011
16.16233
16.15737
16.14036
16.15189
16.12616
16.15211
16.11222
16.12917
16.13165
16.08847
16.07816
16.12406
16.13165
16.08847
16.11222
16.12917
16.12616
16.15211
16.23095
16.11675
16.06774
16.19506
16.23362
16.23162
16.19574
16.1979
16.23825
16.23614
16.20069
16.20359
16.23046
16.23783
16.20608
16.20737
16.18887
16.20097
16.20872
16.21246
16.1843
16.1616
16.18886
16.20096
16.19011
16.18915
16.21768
16.22147
16.16096
16.1639
16.1901
16.18913
16.19812
16.18526
16.15365
16.17982
16.21788
16.1606
16.15451
16.15364
16.17981
16.15628
16.16409
16.16325
16.16252
16.17368
16.18432
16.17819
16.16986
16.19571
16.20766
16.19431
16.18664
16.2192
16.22769
16.19269
16.19552
16.22942
16.19993
16.20171
16.19572
16.17435
16.15167
16.15408
16.15982
16.17434
16.15166
16.18171
16.19423
16.2036
16.18537
16.16579
16.16666
16.17389
16.21763
16.20585
16.18487
16.18839
16.12571
16.18821
16.17027
16.14765
16.13021
16.12211
16.12336
16.16168
16.13588
16.14862
16.15033
16.14909
16.13943
16.13402
16.15321
16.16239
16.15955
16.16715
16.1541
16.14681
16.14397
16.15321
16.16239
16.1554
16.14679
16.14079
16.14238
16.1554
16.1468
16.14605
16.15503
16.14671
16.15206
16.15645
16.14415
16.15955
16.15076
16.14399
16.1428
16.15206
16.15645
16.13765
16.11874
16.12897
16.12338
16.15347
16.12229
16.12807
16.1098
16.12219
16.13163
16.12456
16.13487
16.12275
16.12869
16.14879
16.13945
16.1181
16.09955
16.13485
16.12272
16.12085
16.10746
16.10745
16.11022
16.09831
16.08749
16.11925
16.13161
16.09812
16.08381
16.11667
16.1184
16.13586
16.12215
16.14711
16.15262
16.14396
16.07285
16.10668
16.13285
16.09471
16.10765
16.0906
16.09953
16.09563
16.11534
16.12459
16.13306
16.09208
16.11218
16.11779
16.11633
16.16452
16.15326
16.15362
16.20582
16.18105
16.13062
16.16697
16.14881
16.13557
16.12236
16.17938
16.15293
16.20059
16.15156
16.13937
16.2454
16.21342
16.15294
16.20059
16.22674
16.20934
16.14132
16.11579
16.14483
16.14776
16.18691
16.1828
16.15934
16.17341
16.16385
16.15604
16.15408
16.17102
16.17994
16.14258
16.15408
16.15934
16.12638
16.13
16.14067
16.11612
16.11011
16.10566
16.09565
16.1064
16.11402
16.1212
16.12769
16.13096
16.11402
16.1212
16.10566
16.09565
16.11612
16.11011
16.16554
16.24893
16.20833
16.0775
16.16554
16.24892
16.26687
16.1478
16.24786
16.24824
16.2078
16.20735
16.24785
16.24823
16.26928
16.26746
16.2496
16.2516
16.21131
16.20926
16.24959
16.25159
16.2747
16.27177
16.25403
16.25673
16.21624
16.21369
16.25402
16.25672
16.28183
16.27805
16.25948
16.26189
16.2215
16.21887
16.25947
16.26188
16.28987
16.28589
16.26309
16.26079
16.22454
16.22382
16.29296
16.26308
16.26078
16.29337
16.24613
16.21373
16.20796
16.21843
16.24612
16.21372
16.24654
16.26084
16.28629
16.21376
16.20601
16.2209
16.22234
16.22922
16.23656
16.23444
16.22356
16.25278
16.24495
16.23742
16.23232
16.23193
16.2523
16.2325
16.24097
16.23349
16.22743
16.25256
16.26487
16.19713
16.20027
16.23348
16.22742
16.23791
16.24072
16.27514
16.27879
16.20808
16.21199
16.2379
16.24071
16.21445
16.2271
16.22635
16.24754
16.21918
16.24273
16.2432
16.22717
16.22894
16.21269
16.191
16.16653
16.19492
16.21268
16.19099
16.21405
16.21609
16.18179
16.1708
16.18157
16.19221
16.18226
16.20141
16.19175
16.2167
16.22933
16.21071
16.16214
16.18861
16.2014
16.19175
16.19415
16.17747
16.16505
16.178
16.19415
16.17747
16.18377
16.20314
16.19884
16.16099
16.17009
16.17528
16.18504
16.16777
16.15619
16.15009
16.16099
16.17008
16.16203
16.15869
16.15065
16.15024
16.16203
16.15869
16.16576
16.18156
16.16544
16.17018
16.16817
16.16807
16.19064
16.1771
16.16025
16.16765
16.17017
16.16817
16.19402
16.2029
16.16211
16.18947
16.19401
16.20288
16.20777
16.21856
16.18776
16.16475
16.19568
16.18328
16.16767
16.16424
16.18446
16.17954
16.17747
16.16745
16.21218
16.21164
16.15868
16.1367
16.17745
16.16742
16.12254
16.11354
16.14633
16.15199
16.14409
16.12982
16.11093
16.13699
16.1225
16.11351
16.17119
16.19447
16.1531
16.11662
16.14866
16.16843
16.20883
16.16512
16.17355
16.2041
16.20631
16.16842
16.20881
16.20678
16.15432
16.11535
16.09564
16.09954
16.09062
16.10766
16.13703
16.16549
16.11217
16.11778
16.14032
16.13643
16.1794
16.18567
16.1794
16.13643
16.12696
16.17642
16.19199
16.22329
16.20081
16.20889
16.17217
16.15491
16.18311
16.16398
16.17048
16.18431
16.2637
16.20554
16.22582
16.28057
16.29493
16.17912
16.19611
16.2637
16.20554
16.18538
16.24641
16.27536
16.24914
16.19076
16.18161
16.16687
16.14154
16.19076
16.18538
16.17
16.21633
16.16871
16.15805
16.17
16.21633
16.23383
16.17921
16.19242
16.22672
16.19133
16.25996
16.2726
16.23216
16.22852
16.16697
16.18254
16.17455
16.1813
16.16697
16.18254
16.22672
16.19133
16.22753
16.1864
16.21906
16.2187
16.20972
16.22009
16.18059
16.19579
16.16353
16.16546
16.16125
16.16462
16.16353
16.16546
16.18059
16.1958
16.22753
16.1864
16.20096
16.23738
16.2282
16.21404
16.1994
16.16044
16.17454
16.17571
16.1892
16.15385
16.16129
16.20052
16.1892
16.15385
16.16044
16.17454
16.1994
16.20096
16.10647
16.23451
16.28526
16.15685
16.23576
16.23863
16.27277
16.28164
16.24189
16.24505
16.24625
16.25753
16.24841
16.25237
16.2494
16.24684
16.25691
16.2617
16.25717
16.25296
16.26636
16.27065
16.26623
16.26168
16.27452
16.27964
16.27545
16.27077
16.28773
16.29733
16.28721
16.28067
16.30693
16.31451
16.30477
16.29546
16.31449
16.29406
16.32324
16.31377
16.2902
16.28397
16.25063
16.25441
16.2902
16.28397
16.33398
16.33223
16.2605
16.29483
16.26921
16.24653
16.2449
16.26797
16.25698
16.26151
16.26257
16.29484
16.2806
16.27364
16.28767
16.2796
16.30186
16.30268
16.31288
16.28982
16.22982
16.23002
16.22636
16.25657
16.22333
16.20939
16.22635
16.25656
16.22331
16.23544
16.24762
16.20761
16.23293
16.19986
16.22596
16.22913
16.21145
16.26348
16.25023
16.24506
16.24153
16.24909
16.22704
16.21795
16.24152
16.24908
16.22657
16.22251
16.19897
16.20336
16.22656
16.2225
16.22508
16.22377
16.23464
16.22128
16.21776
16.22047
16.2168
16.21452
16.19301
16.19394
16.2168
16.21452
16.21573
16.22357
16.20137
16.19524
16.21573
16.22356
16.22978
16.22641
16.22296
16.24005
16.24667
16.24826
16.24114
16.22843
16.21039
16.2235
16.24113
16.22842
16.21457
16.2397
16.22711
16.2047
16.22592
16.18376
16.19826
16.18475
16.16128
16.19825
16.21022
16.22773
16.24602
16.23915
16.18375
16.21712
16.20292
16.21097
16.17846
16.19739
16.22773
16.19061
16.2427
16.24883
16.19734
16.22706
16.17606
16.17503
16.22772
16.19059
16.21458
16.21173
16.16987
16.20562
16.20321
16.16152
16.13917
16.15141
16.2032
16.16151
16.20458
16.15141
16.19773
16.20589
16.20527
16.20882
16.13674
16.15923
16.20457
16.15139
16.21416
16.20724
16.16231
16.2115
16.21502
16.16221
16.12459
16.13306
16.21502
16.1622
16.16452
16.13062
16.18105
16.20582
16.15362
16.15326
16.19199
16.22329
16.22752
16.19661
16.14948
16.17272
16.24482
16.18311
16.16398
16.17523
16.24375
16.28538
16.29027
16.28538
16.24375
16.22857
16.1933
16.188
16.19356
16.22992
16.21629
16.19252
16.20722
16.21159
16.19739
16.18027
16.22633
16.23875
16.2652
16.26336
16.25043
16.23566
16.30276
16.28167
16.2745
16.28512
16.29518
16.25175
16.24795
16.24407
16.26313
16.25175
16.24795
16.26705
16.26892
16.30623
16.29055
16.24839
16.26232
16.23412
16.25309
16.24839
16.26232
16.29813
16.25995
16.26392
16.22813
16.26983
16.2341
16.22751
16.22018
16.21271
16.20722
16.2016
16.19063
16.19721
16.20722
16.2016
16.22019
16.21271
16.2341
16.22751
16.22813
16.26983
16.26276
16.25843
16.24303
16.2384
16.24845
16.25329
16.24376
16.25747
16.24239
16.23598
16.23105
16.24239
16.24845
16.3886
16.28628
16.29347
16.39346
16.36855
16.38286
16.3864
16.37219
16.30676
16.32892
16.3196
16.28776
16.31304
16.27866
16.30675
16.32892
16.26342
16.25599
16.26305
16.29991
16.27841
16.25877
16.2637
16.27774
16.26981
16.26933
16.27501
16.29265
16.28545
16.29929
16.28039
16.28538
16.30534
16.29026
16.29595
16.31743
16.31111
16.30331
16.31227
16.33406
16.32506
16.32214
16.33211
16.35396
16.34397
16.36293
16.34122
16.34795
16.36893
16.35117
16.34743
16.35269
16.36755
16.25815
16.30464
16.28878
16.30024
16.26068
16.28634
16.27002
16.27593
16.29597
16.31699
16.33147
16.31624
16.3043
16.26597
16.29743
16.31638
16.25989
16.22405
16.24264
16.25792
16.26506
16.2549
16.2679
16.27121
16.22887
16.23254
16.2679
16.27121
16.27914
16.28891
16.304
16.24572
16.2596
16.26466
16.25075
16.23457
16.21892
16.25474
16.28885
16.22533
16.25128
16.22605
16.2702
16.28153
16.28482
16.2246
16.25505
16.28496
16.27706
16.26775
16.234
16.23783
16.28003
16.29089
16.22613
16.21779
16.2414
16.25396
16.23373
16.24491
16.22687
16.20847
16.23732
16.23386
16.20286
16.2017
16.22595
16.27734
16.26835
16.24687
16.21145
16.20206
16.20747
16.20074
16.19132
16.18896
16.23561
16.20084
16.25699
16.18785
16.16496
16.28442
16.26876
16.20083
16.25698
16.26815
16.25157
16.21484
16.26236
16.23891
16.22101
16.25112
16.23933
16.21019
16.22964
16.17277
16.15191
16.23675
16.2612
16.21018
16.22963
16.24383
16.21673
16.1757
16.2091
16.15833
16.15514
16.15336
16.26015
16.24238
16.17569
16.2091
16.25077
16.13558
16.14881
16.16697
16.17939
16.12236
16.18431
16.17217
16.18879
16.20934
16.2454
16.22831
16.28057
16.22582
16.20554
16.2637
16.29493
16.21629
16.22992
16.19356
16.188
16.1933
16.19252
16.20339
16.25408
16.25756
16.26762
16.24862
16.27837
16.28307
16.28307
16.27837
16.27215
16.30311
16.29947
16.28728
16.28002
16.27774
16.32972
16.32966
16.29531
16.29899
16.3132
16.28689
16.29329
16.30392
16.28178
16.29329
16.33539
16.33096
16.32215
16.28689
16.37512
16.33172
16.30866
16.28018
16.33481
16.31386
16.30386
16.33887
16.36608
16.33611
16.32491
16.31257
16.30383
16.31386
16.30386
16.31985
16.30885
16.31512
16.31663
16.31678
16.32187
16.28031
16.27744
16.27964
16.26622
16.28031
16.27744
16.31985
16.30885
16.27527
16.28757
16.2591
16.24616
16.25068
16.2591
16.24616
16.23779
16.27527
16.28757
16.29701
16.28021
16.29121
16.21949
16.27035
16.33384
16.33094
16.32905
16.32837
16.31699
16.32614
16.31161
16.27162
16.3478
16.33343
16.30833
16.27831
16.29423
16.3571
16.35319
16.30376
16.31166
16.36414
16.36069
16.31854
16.32501
16.37182
16.3677
16.33153
16.33816
16.38336
16.37695
16.34492
16.35203
16.39689
16.39061
16.35975
16.36813
16.40312
16.40048
16.37692
16.38503
16.40403
16.40541
16.38939
16.38418
16.33261
16.36241
16.33528
16.33051
16.28999
16.30273
16.28229
16.31077
16.2929
16.30381
16.33105
16.32455
16.30229
16.3526
16.37312
16.35856
16.34596
16.38873
16.38297
16.30687
16.26774
16.27641
16.26872
16.3292
16.23072
16.28138
16.31649
16.2758
16.27528
16.25995
16.25416
16.25635
16.27178
16.27652
16.30828
16.3032
16.27621
16.24411
16.2988
16.28187
16.27807
16.28498
16.2835
16.30158
16.30172
16.25898
16.27073
16.27776
16.24594
16.28352
16.28651
16.23864
16.21869
16.22593
16.2767
16.28781
16.27897
16.22696
16.24802
16.24939
16.2702
16.24054
16.30122
16.26905
16.27629
16.30385
16.2905
16.25361
16.2428
16.21221
16.19848
16.20416
16.24341
16.24024
16.2416
16.28399
16.27453
16.28585
16.25291
16.22515
16.21443
16.22263
16.24122
16.25266
16.21271
16.19826
16.19142
16.19299
16.19985
16.20793
16.19782
16.18945
16.18422
16.18349