# Probe 0 (0 0.07 0)
#        Probe              0
#         Time
             1       26.14464
             1       26.14464
             1       26.14464
             2       23.14008
             2       23.14008
             2       23.14008
             3       20.90554
             3       20.90554
             3       20.90554
             4       19.26961
             4       19.26961
             4       19.26961
             5       18.09107
             5       18.09107
             5       18.09107
             6       17.25503
             6       17.25503
             6       17.25503
             7       16.66994
             7       16.66994
             7       16.66994
             8       16.26507
             8       16.26507
             8       16.26507
             9       15.98742
             9       15.98742
             9       15.98742
            10       15.79837
            10       15.79837
            10       15.79837
            11       15.67036
            11       15.67036
            11       15.67036
            12       15.58405
            12       15.58405
            12       15.58405
            13       15.52604
            13       15.52604
            13       15.52604
            14       15.48715
            14       15.48715
            14       15.48715
            15       15.46112
            15       15.46112
            15       15.46112
            16       15.44373
            16       15.44373
            16       15.44373
            17       15.43211
            17       15.43211
            17       15.43211
            18       15.42437
            18       15.42437
            18       15.42437
            19        15.4192
            19        15.4192
            19        15.4192
            20       15.41576
            20       15.41576
            20       15.41576
            21       15.41346
            21       15.41346
            21       15.41346
            22       15.41193
            22       15.41193
            22       15.41193
            23       15.41091
            23       15.41091
            23       15.41091
            24       15.41022
            24       15.41022
            24       15.41022
            25       15.40977
            25       15.40977
            25       15.40977
            26       15.40947
            26       15.40947
            26       15.40947
            27       15.40927
            27       15.40927
            27       15.40927
            28       15.40913
            28       15.40913
            28       15.40913
            29       15.40903
            29       15.40903
            29       15.40903
            30       15.40897
            30       15.40897
            30       15.40897
            31       15.40894
            31       15.40894
            31       15.40894
            32       15.40891
            32       15.40891
            32       15.40891
            33        15.4089
            33        15.4089
            33        15.4089
            34       15.40889
            34       15.40889
            34       15.40889
            35       15.40889
            35       15.40889
            35       15.40889
