# Probe 0 (0 0.07 0)
#        Probe              0
#         Time
             1       26.20436
             1       26.20436
             1       26.20436
             2       23.24445
             2       23.24445
             2       23.24445
             3       21.04317
             3       21.04317
             3       21.04317
             4       19.43162
             4       19.43162
             4       19.43162
             5       18.27067
             5       18.27067
             5       18.27067
             6       17.44712
             6       17.44712
             6       17.44712
             7       16.87078
             7       16.87078
             7       16.87078
             8       16.47196
             8       16.47196
             8       16.47196
             9       16.19846
             9       16.19846
             9       16.19846
            10       16.01224
            10       16.01224
            10       16.01224
            11       15.88615
            11       15.88615
            11       15.88615
            12       15.80113
            12       15.80113
            12       15.80113
            13       15.74399
            13       15.74399
            13       15.74399
            14       15.70568
            14       15.70568
            14       15.70568
            15       15.68004
            15       15.68004
            15       15.68004
            16       15.66291
            16       15.66291
            16       15.66291
            17       15.65147
            17       15.65147
            17       15.65147
            18       15.64384
            18       15.64384
            18       15.64384
            19       15.63875
            19       15.63875
            19       15.63875
            20       15.63536
            20       15.63536
            20       15.63536
            21       15.63309
            21       15.63309
            21       15.63309
            22       15.63159
            22       15.63159
            22       15.63159
            23       15.63058
            23       15.63058
            23       15.63058
            24       15.62991
            24       15.62991
            24       15.62991
            25       15.62946
            25       15.62946
            25       15.62946
            26       15.62916
            26       15.62916
            26       15.62916
            27       15.62896
            27       15.62896
            27       15.62896
            28       15.62883
            28       15.62883
            28       15.62883
            29       15.62874
            29       15.62874
            29       15.62874
            30       15.62868
            30       15.62868
            30       15.62868
            31       15.62864
            31       15.62864
            31       15.62864
            32       15.62862
            32       15.62862
            32       15.62862
            33        15.6286
            33        15.6286
            33        15.6286
            34       15.62859
            34       15.62859
            34       15.62859
            35       15.62859
            35       15.62859
            35       15.62859
