# vtk DataFile Version 2.0
sampleSurface
ASCII
DATASET POLYDATA
POINTS 21909 double
-0.009064136 0 -0.07143301
-0.008998931 0.0004811288 -0.0714338
-0.005940038 0.0004785172 -0.07175296
-0.005925065 0 -0.07176205
-0.00898044 0.0009578404 -0.07143137
-0.0089695 0.001436373 -0.07142495
-0.005934916 0.001436798 -0.07174095
-0.0059381 0.0009581339 -0.07174838
0.006929683 0.003860204 -0.07154166
0.003943365 0.003841591 -0.0717871
0.003836514 0.004330438 -0.07176866
0.006863935 0.004346919 -0.07153996
0.005204042 0.006025698 -0.07140087
0.003900136 0.006216758 -0.07146125
0.004797213 0.006371223 -0.07120976
0.006366027 0.006234497 -0.07118766
-0.01690683 0 -0.0699918
-0.01690176 0.0004660097 -0.06998652
-0.01532724 0.0004735912 -0.07034807
-0.01538505 0 -0.07034159
0.01690683 0 -0.0699918
0.01690176 0.0004660097 -0.06998652
0.01935186 0.0004698033 -0.06934901
0.01940642 0 -0.06933856
-0.01688155 0.0009282242 -0.06998681
-0.01699243 0.001429515 -0.0699516
-0.01526929 0.001430949 -0.07034813
-0.01531078 0.0009501014 -0.07034691
0.01688155 0.0009282242 -0.06998681
0.01699243 0.001429515 -0.0699516
0.01777368 0.001616645 -0.06975301
0.01900527 0.001440703 -0.06943144
0.01927883 0.0009377069 -0.0693646
-0.01495876 0.00237964 -0.07014781
-0.01515212 0.001921017 -0.07035898
-0.01772864 0.001967271 -0.0697555
-0.017663 0.002428188 -0.06975769
-0.01488045 0.003376585 -0.07036063
-0.01463604 0.002872575 -0.07016436
-0.01761708 0.002903936 -0.06975113
-0.01759965 0.003386233 -0.06973374
0.01330103 0.003020615 -0.07030311
0.01332145 0.003373608 -0.07065588
0.01488045 0.003376585 -0.07036063
0.01463604 0.002872575 -0.07016436
-0.01487963 0.004354511 -0.07031111
-0.01489151 0.003871907 -0.07033717
-0.01759379 0.003870672 -0.06970996
-0.01758827 0.004353827 -0.06968283
0.01326909 0.003870223 -0.07066092
0.0132396 0.004354741 -0.07063839
0.01487963 0.004354511 -0.07031111
0.01489151 0.003871907 -0.07033717
-0.01485914 0.005314044 -0.07024932
-0.01486859 0.004834784 -0.07028195
-0.01758016 0.004835229 -0.06965313
-0.01756987 0.00531512 -0.06962075
0.01322372 0.004835659 -0.0706099
0.01321229 0.005315187 -0.07057752
0.01485914 0.005314044 -0.07024932
0.01486859 0.004834784 -0.07028195
-0.01483585 0.006269192 -0.07017554
-0.01484916 0.005792228 -0.07021362
-0.01755647 0.005793293 -0.06958597
-0.01753972 0.006270043 -0.06954886
0.01320084 0.005793692 -0.07054205
0.013187 0.006270977 -0.07050403
0.01483585 0.006269192 -0.07017554
0.01484916 0.005792228 -0.07021362
-0.01476727 0.007220409 -0.0700999
-0.01481274 0.006745134 -0.07013662
-0.01752485 0.006749225 -0.06950776
-0.01747511 0.007230127 -0.06947197
0.01316757 0.006748337 -0.07046415
0.01313449 0.007232288 -0.07041563
0.01476727 0.007220409 -0.0700999
0.01481274 0.006745134 -0.07013662
-0.01458479 0.008160763 -0.0699942
-0.01467715 0.007694786 -0.07006568
-0.01734643 0.007709493 -0.06945145
-0.0171799 0.00817979 -0.06940487
0.01303149 0.007658066 -0.07013424
0.0127134 0.008145667 -0.07011965
0.01458479 0.008160763 -0.0699942
0.01467715 0.007694786 -0.07006568
-0.01291895 0.008678307 -0.07018658
-0.01283342 0.009170064 -0.07024822
-0.01111907 0.009171049 -0.07053987
-0.01121779 0.008684553 -0.07055047
0.01291895 0.008678307 -0.07018658
0.01283342 0.009170064 -0.07024822
0.01550816 0.009214193 -0.06969212
0.01553238 0.008848374 -0.06962521
0.01470526 0.008669575 -0.06989775
-0.01270633 0.00965055 -0.07021243
-0.01259582 0.01012346 -0.0701653
-0.01091093 0.01007656 -0.07022245
-0.01103066 0.009649069 -0.07048143
0.01270633 0.00965055 -0.07021243
0.01259582 0.01012346 -0.0701653
0.0153898 0.01013964 -0.06960188
0.01544476 0.009672148 -0.06965516
-0.01250133 0.01059828 -0.07011242
-0.01246169 0.01107834 -0.07003495
-0.01077552 0.01109865 -0.07025409
-0.01057517 0.0105646 -0.07020885
0.009087432 0.01070472 -0.0702885
0.009024249 0.01111183 -0.07043726
0.01077552 0.01109865 -0.07025409
0.01057517 0.0105646 -0.07020885
0.01533963 0.01061037 -0.06954367
0.01250133 0.01059828 -0.07011242
0.01246169 0.01107834 -0.07003495
0.01528879 0.01108556 -0.06947225
-0.01241094 0.0115227 -0.06981593
-0.01249937 0.01201585 -0.06970258
-0.01058548 0.01202547 -0.06999299
-0.01070047 0.01154837 -0.07005002
0.00885105 0.0115031 -0.07010176
0.00847126 0.01198164 -0.07007286
0.01058548 0.01202547 -0.06999299
0.01070047 0.01154837 -0.07005002
0.01241094 0.0115227 -0.06981593
0.01249937 0.01201585 -0.06970258
0.01374167 0.01181967 -0.06956173
0.0138365 0.01150276 -0.06961011
-0.01035302 0.0130434 -0.07001895
-0.01047561 0.01253018 -0.07010236
-0.01330005 0.01257349 -0.06960283
-0.01318904 0.01306701 -0.06953862
-0.00867885 0.01253044 -0.07034307
-0.008573217 0.01305643 -0.07025113
-0.006706973 0.01296387 -0.0701714
-0.006876274 0.01253266 -0.07044643
0.00867885 0.01253044 -0.07034307
0.008573217 0.01305643 -0.07025113
0.01035302 0.0130434 -0.07001895
0.01047561 0.01253018 -0.07010236
-0.01168874 0.01345985 -0.0694898
-0.01158956 0.01380607 -0.06943759
-0.01030702 0.01405416 -0.06958246
-0.0102374 0.01348139 -0.06970763
-0.008413049 0.01350372 -0.0698825
-0.008308869 0.0140764 -0.06979287
-0.006369715 0.01413108 -0.07022739
-0.006263676 0.01347463 -0.07013973
0.004655064 0.01359979 -0.0702327
0.004217162 0.01411601 -0.07046486
0.006369715 0.01413108 -0.07022739
0.006263676 0.01347463 -0.07013973
0.008413049 0.01350372 -0.0698825
0.008308869 0.0140764 -0.06979287
0.01030702 0.01405416 -0.06958246
0.0102374 0.01348139 -0.06970763
-0.00816439 0.01474467 -0.06979182
-0.008123796 0.01553724 -0.06968349
-0.00615854 0.01557272 -0.06987687
-0.006269492 0.01478943 -0.06999122
-0.004252361 0.01484426 -0.07032473
-0.004167042 0.01564577 -0.07015701
-0.002086256 0.01566887 -0.07024371
-0.002035573 0.01478069 -0.07043805
-1.296331e-13 0.01488875 -0.07044412
-1.116933e-13 0.01568376 -0.07027116
0.002086256 0.01566887 -0.07024371
0.002035573 0.01478069 -0.07043805
0.004252361 0.01484426 -0.07032473
0.004167042 0.01564577 -0.07015701
0.00615854 0.01557272 -0.06987687
0.006269492 0.01478943 -0.06999122
0.00816439 0.01474467 -0.06979182
0.008123796 0.01553724 -0.06968349
0.009495395 0.0152311 -0.06956575
0.009713625 0.01474324 -0.06960958
-0.004278581 0.01791074 -0.06960536
-0.002682747 0.01797843 -0.06966763
-0.002024583 0.01749784 -0.06981212
-0.002064412 0.01655446 -0.07004072
-0.004069916 0.01648712 -0.06996928
-6.407711e-14 0.01657528 -0.07006614
-2.963522e-14 0.01741896 -0.06986116
0.002024583 0.01749784 -0.06981212
0.002064412 0.01655446 -0.07004072
0.004069916 0.01648712 -0.06996928
0.004278581 0.01791074 -0.06960536
0.006302719 0.01766608 -0.06951396
0.006851871 0.01688607 -0.06965202
0.006090001 0.01647622 -0.06982318
0.02178952 0 -0.06862723
0.02173994 0.0004839719 -0.06863775
0.02422283 0.0004851612 -0.06780132
0.02428084 0 -0.06778668
0.0241982 0.0009600264 -0.06780506
0.021702 0.0009649152 -0.06864468
0.02166891 0.001446078 -0.06864669
0.02418787 0.001441778 -0.06780021
0.02165121 0.001928296 -0.06864042
0.02163699 0.002412143 -0.0686296
0.02407253 0.002414488 -0.06781359
0.02415849 0.001927793 -0.06779861
0.02162145 0.002896886 -0.06861575
0.02160658 0.003381648 -0.06859825
0.02394414 0.00338507 -0.06781755
0.02398966 0.002901144 -0.06782389
0.02159432 0.003865922 -0.06857653
0.02158369 0.004349183 -0.06855092
0.02389619 0.004354808 -0.06777911
0.02391564 0.00386989 -0.06780167
0.02388119 0.004838789 -0.06775157
0.02157288 0.004831138 -0.06852205
0.02155964 0.005311526 -0.06849065
0.02386673 0.00532156 -0.06772046
0.02153985 0.005789604 -0.06845813
0.02150519 0.006263504 -0.0684273
0.02382303 0.006285112 -0.06765324
0.02384888 0.005803457 -0.06768715
0.02143428 0.006731551 -0.0684051
0.02115995 0.007233427 -0.06843927
0.02375307 0.007245286 -0.06758178
0.02378832 0.006766095 -0.06761905
-0.02133638 0.007737512 -0.06832928
-0.02132347 0.008207186 -0.06827849
-0.01981378 0.008224313 -0.06872967
-0.01989149 0.007767601 -0.06876037
0.02133638 0.007737512 -0.06832928
0.02132347 0.008207186 -0.06827849
0.02370689 0.008199301 -0.06748892
0.02373046 0.007723204 -0.06753679
-0.02128374 0.008674306 -0.06823312
-0.02125193 0.00913802 -0.0681825
-0.01972551 0.009172219 -0.06863506
-0.01975295 0.008694455 -0.06868931
0.02128374 0.008674306 -0.06823312
0.02125193 0.00913802 -0.0681825
0.02358604 0.009134214 -0.06741116
0.02366654 0.008670588 -0.06744417
-0.01957109 0.01013331 -0.06854405
-0.01968205 0.009653175 -0.06858156
-0.02135352 0.009641726 -0.06808131
-0.02211304 0.009832333 -0.06781103
-0.02206851 0.01017999 -0.06777423
-0.01931955 0.01107746 -0.06847043
-0.01944538 0.01060973 -0.06850791
-0.02197573 0.01064167 -0.06773343
-0.02183032 0.01111792 -0.06770394
-0.0216966 0.01159635 -0.06766667
-0.021616 0.0120715 -0.06760937
-0.01915357 0.01208056 -0.0683469
-0.01899685 0.01157877 -0.06847851
0.01772964 0.01176573 -0.06878346
0.01766225 0.01211263 -0.06874192
0.01915357 0.01208056 -0.0683469
0.01899685 0.01157877 -0.06847851
-0.01907643 0.01302093 -0.06819518
-0.01912379 0.01254796 -0.06827064
-0.02154544 0.01254656 -0.06754538
-0.02144405 0.01302379 -0.0674873
0.01758783 0.01256988 -0.06867883
0.01753462 0.01305457 -0.06860186
0.01907643 0.01302093 -0.06819518
0.01912379 0.01254796 -0.06827064
0.01744438 0.01357058 -0.06852157
0.01721143 0.01410256 -0.06832773
0.01982729 0.0142108 -0.06774167
0.01991026 0.01377028 -0.06780826
0.01914553 0.0135639 -0.06806996
-0.01676825 0.01479184 -0.06830143
-0.01683747 0.01566594 -0.06822715
-0.01530623 0.01569121 -0.06856287
-0.01541859 0.01499731 -0.0684942
0.01676825 0.01479184 -0.06830143
0.01683747 0.01566594 -0.06822715
0.01941938 0.01565476 -0.06754134
0.01966891 0.01486131 -0.06764822
-0.01479011 0.01764079 -0.06822145
-0.01483988 0.01662208 -0.06846675
-0.0168176 0.01660519 -0.06801176
-0.01763364 0.01693667 -0.06772139
-0.01742263 0.01769596 -0.06758189
0.01336176 0.01693337 -0.06867411
0.01315448 0.01767745 -0.06849943
0.01479011 0.01764079 -0.06822145
0.01483988 0.01662208 -0.06846675
-0.01260634 0.01866355 -0.0683602
-0.01264765 0.01979184 -0.06806084
[...]
POINT_DATA 21909
FIELD attributes 1
T 1 21909 float
16.38219 16.4715 16.50188 16.46135 16.46711 16.46033 16.49434 16.49896 16.41607 16.43879
16.44978 16.44334 16.49146 16.44358 16.44457 16.41871 16.37375 16.42567 16.44626 16.36501
16.37375 16.42567 16.45268 16.35872 16.41531 16.41453 16.44356 16.44003 16.41531 16.41453
16.39995 16.39838 16.44466 16.43572 16.43907 16.36077 16.35263 16.38419 16.4163 16.35773
16.3704 16.42064 16.37499 16.38419 16.4163 16.41418 16.40879 16.37864 16.38257 16.41265
16.42462 16.41418 16.40879 16.41879 16.41684 16.38608 16.3898 16.43007 16.43281 16.41879
16.41684 16.42262 16.42085 16.39412 16.39901 16.43445 16.43465 16.42262 16.42084 16.41639
16.42252 16.40287 16.41789 16.43087 16.41462 16.41639 16.42251 16.42793 16.41605 16.43882
16.44698 16.41002 16.40336 16.42793 16.41604 16.40019 16.41645 16.4294 16.41073 16.40018
16.41644 16.39206 16.42841 16.44072 16.41518 16.41225 16.4242 16.41806 16.41517 16.41224
16.40557 16.39973 16.41714 16.41605 16.36255 16.42663 16.45341 16.36842 16.36254 16.42662
16.40993 16.41714 16.41604 16.40709 16.43166 16.45078 16.38552 16.36771 16.37941 16.38571
16.38552 16.36771 16.43165 16.45078 16.48455 16.46641 16.39836 16.40224 16.3897 16.38897
16.3492 16.35058 16.37948 16.35515 16.3492 16.35058 16.39836 16.40224 16.44135 16.46732
16.43904 16.41472 16.36441 16.38947 16.36738 16.39983 16.41433 16.36968 16.36738 16.39983
16.36441 16.38948 16.43904 16.41472 16.37384 16.37217 16.32697 16.34599 16.34037 16.30674
16.2986 16.34187 16.34566 16.29338 16.2986 16.34187 16.34037 16.30674 16.32697 16.34599
16.37384 16.37217 16.3964 16.40897 16.31278 16.31295 16.32861 16.29959 16.32894 16.28181
16.31343 16.32861 16.29959 16.32894 16.31278 16.31861 16.34572 16.35503 16.30483 16.41834
16.33094 16.21949 16.32904 16.4184 16.41743 16.32613 16.41377 16.41017 16.34779 16.33342
16.40858 16.40861 16.3571 16.35319 16.40953 16.411 16.36414 16.36068 16.36769 16.41286
16.41504 16.37181 16.41739 16.41935 16.38335 16.37694 16.41855 16.37925 16.39688 16.39061
16.35831 16.35677 16.35552 16.34949 16.35831 16.35677 16.40311 16.40048 16.35888 16.35802
16.37049 16.36397 16.35888 16.35802 16.40403 16.40541 16.40833 16.38628 16.36055 16.36106
16.32531 16.42616 16.41903 16.33986 16.36669 16.38399 16.39593 16.37441 16.3948 16.40263
16.37162 16.3744 16.3948 16.3778 16.37589 16.40533 16.41186 16.38317 16.39217 16.3778
16.37588 16.40826 16.42243 16.33866 16.37653 16.38369 16.3644 16.32651 16.32804 16.36784
16.3644 16.32651 16.34934 16.33905 16.33982 16.33781 16.35489 16.33359 16.34297 16.35195
16.34543 16.33982 16.33781 16.36114 16.36086 16.3459 16.37341 16.36086 16.33552 16.31988
16.3522 16.37177 16.36114 16.36562 16.34033 16.32011 16.34186 16.35041 16.31874 16.32314
16.27609 16.30582 16.29854 16.27677 16.27609 16.30582 16.31874 16.32314 16.36561 16.34033
16.26629 16.24003 16.26599 16.28675 16.25421 16.22962 16.24003 16.26599 16.28675 16.26629
16.26736 16.2827 16.30954 16.39345 16.29347 16.28628 16.38859 16.37218 16.3864 16.38285
16.36855 16.28775 16.3196 16.32892 16.30675 16.31161 16.27162 16.28775 16.3196 16.27831
16.29423 16.26304 16.2999 16.27384 16.26981 16.30375 16.31166 16.27773 16.31853 16.32501
16.29264 16.28545 16.33153 16.33815 16.30534 16.29929 16.34491 16.35203 16.31743 16.3111
16.32505 16.35975 16.36813 16.33406 16.37691 16.38503 16.35395 16.34396 16.38938 16.38418
16.36893 16.36292 16.33528 16.30273 16.28999 16.33051 16.33528 16.30273 16.35269 16.36755
16.33105 16.30381 16.29289 16.31077 16.28229 16.37312 16.35259 16.30229 16.32455 16.38297
16.38873 16.34595 16.35856 16.26871 16.27641 16.26774 16.30686 16.3292 16.3052 16.28233
16.26775 16.30687 16.32567 16.31307 16.31648 16.2758 16.32377 16.31742 16.30235 16.31642
16.31553 16.32169 16.33994 16.30618 16.29925 16.30903 16.30884 16.31285 16.33157 16.31972
16.29111 16.29439 16.32259 16.29816 16.30884 16.31285 16.29555 16.29016 16.29635 16.27836
16.24836 16.27365 16.29911 16.28514 16.29555 16.29016 16.25072 16.2915 16.27586 16.25766
16.2415 16.24578 16.25956 16.23 16.23229 16.21597 16.21141 16.23 16.23229 16.24578
16.25956 16.23666 16.2415 16.25072 16.15685 16.26576 16.33957 16.28525 16.28164 16.33296
16.31543 16.27276 16.31303 16.27865 16.24625 16.25752 16.27984 16.26342 16.25599 16.24939
16.24684 16.25877 16.26369 16.25716 16.25296 16.26167 16.26933 16.275 16.26622 16.28039
16.28537 16.27544 16.27077 16.29025 16.29595 16.2872 16.28066 16.3033 16.31226 16.30476
16.29546 16.31377 16.32213 16.3321 16.32323 16.34122 16.34794 16.33397 16.33222 16.35117
16.34743 16.30218 16.3127 16.26067 16.30023 16.28877 16.30464 16.25814 16.27001 16.28633
16.29597 16.27592 16.33147 16.31699 16.30429 16.31623 16.25989 16.31638 16.29743 16.26597
16.23071 16.28137 16.25792 16.26505 16.24099 16.27528 16.25635 16.25415 16.25995 16.304
16.27528 16.25635 16.27872 16.28891 16.3032 16.30828 16.27652 16.27178 16.27621 16.31804
16.26782 16.28187 16.27806 16.31808 16.27083 16.28231 16.27285 16.29045 16.29828 16.27386
16.283 16.27083 16.28231 16.30481 16.32537 16.31212 16.25528 16.27637 16.25553 16.22416
16.2408 16.25768 16.28929 16.24072 16.24538 16.2408 16.25768 16.28929 16.25553 16.30669
16.32685 16.30067 16.22392 16.26084 16.24653 16.25576 16.23399 16.23261 16.19586 16.17418
16.23479 16.21815 16.16299 16.17418 16.23479 16.23261 16.19586 16.23399 16.22392 16.10646
16.2345 16.26686 16.14779 16.23576 16.23862 16.26927 16.26745 16.24188 16.24504 16.27468
16.27176 16.2484 16.25236 16.28182 16.27804 16.2569 16.2617 16.28986 16.28588 16.26635
16.27064 16.29336 16.29295 16.27451 16.27963 16.26083 16.28628 16.28772 16.29732 16.26177
16.25615 16.30693 16.3145 16.27538 16.2696 16.31448 16.29405 16.27793 16.24331 16.26915
16.2902 16.25441 16.25063 16.28396 16.2692 16.29482 16.26049 16.24489 16.24652 16.26257
16.2615 16.25697 16.26796 16.28766 16.27364 16.28059 16.29484 16.31288 16.30268 16.30185
16.27959 16.22981 16.28981 16.25656 16.22635 16.23002 16.20761 16.22405 16.24264 16.24762
16.2679 16.23254 16.22886 16.27121 16.25075 16.26466 16.2596 16.24572 16.23457 16.24411
16.2988 16.28885 16.22532 16.30157 16.2835 16.28497 16.25898 16.30172 16.25137 16.27804
16.22603 16.24594 16.28352 16.24939 16.26436 16.26446 16.24448 16.27745 16.28964 16.25501
16.24631 16.26436 16.26446 16.24358 16.23425 16.25223 16.24944 16.23912 16.23953 16.23648
16.22933 16.24359 16.23425 16.24509 16.24475 16.24099 16.245 16.21122 16.22242 16.20648
16.22178 16.20604 16.22243 16.20648 16.19236 16.21122 16.2451 16.17137 16.19958 16.18786
16.20556 16.20044 16.15797 16.18482 16.20044 16.17137 16.16553 16.07749 16.20832 16.24892
16.24784 16.20734 16.20779 16.24823 16.24958 16.20925 16.2113 16.25159 16.25402 16.21367
16.21622 16.25671 16.25946 16.21885 16.22149 16.26188 16.26308 16.2238 16.22453 16.26077
16.24611 16.21842 16.20795 16.21371 16.22233 16.22089 16.206 16.21375 16.23655 16.22921
16.22355 16.23442 16.23231 16.23741 16.24493 16.25277 16.24096 16.23249 16.25229 16.23192
16.26486 16.25255 16.22742 16.23348 16.27879 16.27513 16.24071 16.2379 16.24753 16.26009
16.25743 16.22634 16.22894 16.25584 16.23481 16.22716 16.22333 16.20938 16.21404 16.21609
16.23544 16.21185 16.19914 16.21128 16.22331 16.21144 16.22912 16.22595 16.19985 16.23293
16.25022 16.26348 16.24908 16.24152 16.24505 16.25473 16.22069 16.22377 16.23464 16.21892
16.28481 16.28152 16.27019 16.22605 16.25128 16.27073 16.27776 16.28496 16.27706 16.28325
16.23864 16.27897 16.28781 16.27669 16.22593 16.21869 16.26936 16.29694 16.27494 16.2702
16.24054 16.27957 16.26754 16.2199 16.22873 16.23411 16.27517 16.22534 16.21785 16.21151
16.19233 16.22331 16.27191 16.22534 16.21785 16.22712 16.22845 16.20271 16.18531 16.1773
16.20153 16.19094 16.2011 16.15507 16.14771 16.15792 16.16733 16.14883 16.15138 16.15792
16.16733 16.2011 16.15507 16.19095 16.20271 16.19505 16.06772 16.11673 16.23093 16.19788
16.19573 16.23161 16.2336 16.20357 16.20067 16.23612 16.23823 16.20735 16.20606 16.23781
16.23044 16.21244 16.2087 16.20095 16.18885 16.22145 16.21766 16.18912 16.19008 16.15363
16.18524 16.1981 16.21786 16.1798 16.1625 16.19225 16.19567 16.16323 16.16984 16.20291
16.21098 16.17817 16.18663 16.21821 16.22283 16.19429 16.1955 16.21541 16.19067 16.19267
16.19712 16.20026 16.20169 16.19571 16.20359 16.20807 16.21198 16.19422 16.21444 16.22709
16.20439 16.19522 16.24272 16.24319 16.20717 16.2133 16.21268 16.19491 16.16652 16.19099
16.18226 16.1922 16.18156 16.17079 16.18178 16.22932 16.21669 16.19174 16.2014 16.2107
16.22704 16.21795 16.20313 16.19883 16.2166 16.22656 16.20335 16.19896 16.2225 16.21679
16.22046 16.21775 16.22128 16.21452 16.2246 16.25505 16.2215 16.22642 16.22296 16.22613
16.29089 16.28002 16.23783 16.23399 16.21779 16.22687 16.22696 16.24802 16.23639 16.24492
16.30385 16.27629 16.26904 16.30122 16.29049 16.26461 16.27973 16.277 16.25687 16.23732
16.24324 16.27212 16.27555 16.26598 16.22358 16.23121 16.23235 16.21641 16.22583 16.25842
16.2567 16.21957 16.19266 16.15928 16.14935 16.15429 16.1492 16.14371 16.17785 16.15429
16.1492 16.19266 16.15928 16.21957 16.21641 16.21801 16.12098 16.09377 16.18674 16.2196
16.21816 16.18663 16.18765 16.18953 16.19225 16.22429 16.22182 16.22326 16.22573 16.19593
16.20058 16.183 16.19601 16.20557 16.21028 16.18428 16.16158 16.18298 16.19599 16.19142
16.18657 16.2152 16.21969 16.16094 16.16387 16.1914 16.18655 16.18388 16.19071 16.2205
16.19124 16.18176 16.16057 16.15448 16.18386 16.19069 16.15626 16.16407 16.15412 16.15446
16.15975 16.17365 16.1843 16.17261 16.19569 16.20764 16.19526 16.18384 16.21918 16.22767
16.21695 16.20663 16.2294 16.19992 16.1895 16.20437 16.22418 16.17433 16.15981 16.15406
16.15165 16.17387 16.16664 16.16577 16.18535 16.18838 16.18485 16.20584 16.21762 16.14764
16.17026 16.18819 16.1257 16.13019 16.12209 16.14962 16.14829 16.13587 16.16213 16.1886
16.16454 16.15376 16.19414 16.17799 16.16504 16.17746 16.18504 16.17527 16.17007 16.16098
16.16776 16.16544 16.18153 16.19301 16.19394 16.18157 16.21572 16.19523 16.20136 16.22356
16.24666 16.24004 16.22842 16.24113 16.24825 16.24141 16.25396 16.25532 16.24906 16.22359
16.20286 16.23335 16.27672 16.23386 16.21221 16.2428 16.2536 16.2434 16.20416 16.19847
16.24024 16.25857 16.3019 16.28696 16.28586 16.22306 16.22683 16.21242 16.18395 16.27521
16.28817 16.22306 16.22683 16.26896 16.26574 16.20144 16.22988 16.18381 16.21329 16.18885
16.17162 16.20133 16.1645 16.18885 16.20144 16.17571 16.08322 16.07603 16.17042 16.17533
16.17509 16.16939 16.16894 16.17752 16.17616 16.16866 16.16875 16.18195 16.17944 16.16959
16.17135 16.18913 16.18512 16.17404 16.17767 16.19973 16.19404 16.18224 16.18766 16.21109
16.20574 16.19379 16.20045 16.21437 16.21453 16.20741 16.21398 16.16792 16.18787 16.21865
16.21804 16.16762 16.1418 16.16791 16.18785 16.14434 16.15593 16.1403 16.16574 16.15555
16.16867 16.18263 16.16101 16.14831 16.17517 16.19713 16.2107 16.1897 16.21936 16.19613
16.21635 16.20382 16.17929 16.17612 16.17621 16.16327 16.17926 16.1761 16.18242 16.19875
16.22386 16.16399 16.17736 16.2111 16.19884 16.14181 16.18548 16.16588 16.13176 16.11701
16.12333 16.16166 16.16189 16.1183 16.13401 16.13942 16.14907 16.15032 16.14861 16.16714
16.15954 16.16238 16.1532 16.15409 16.15619 16.15009 16.15503 16.14671 16.15339 16.16202
16.15023 16.15064 16.15868 16.17017 16.17709 16.19063 16.16806 16.16816 16.21039 16.22351
16.21857 16.18777 16.19915 16.22591 16.20469 16.2271 16.23969 16.21456 16.20847 16.23732
16.22774 16.24603 16.23761 16.26834 16.27733 16.22594 16.20205 16.21144 16.24686 16.21118
16.2416 16.28399 16.28414 16.26551 16.25277 16.2399 16.22334 16.22263 16.24122 16.25447
16.25573 16.25984 16.24326 16.22922 16.22642 16.24589 16.20845 16.21767 16.19381 16.23141
16.21927 16.25968 16.21723 16.20845 16.21767 16.2619 16.15178 16.20643 16.17326 16.08242
16.15179 16.20644 16.25581 16.17471 16.19495 16.17579 16.16144 16.16694 16.19496 16.17579
16.18761 16.2098 16.24613 16.15564 16.14871 16.15919 16.15952 16.16182 16.16001 16.14871
16.15087 16.16856 16.16468 16.15484 16.15994 16.17895 16.17335 16.16569 16.17194 16.1787
16.18601 16.1924 16.18532 16.20789 16.20004 16.19388 16.20216 16.22093 16.21532 16.21049
16.21813 16.18801 16.22121 16.22356 16.22333 16.16994 16.16048 16.14142 16.14887 16.14381
16.16176 16.17649 16.16581 16.1521 16.19189 16.20725 16.19913 16.182 16.22122 16.22973
16.22986 16.21588 16.20373 16.17718 16.1612 16.18376 16.23255 16.20375 16.17721 16.1843
16.19371 16.14676 16.15086 16.14042 16.13922 16.12914 16.14223 16.12667 16.11913 16.13784
16.14887 16.12234 16.13195 16.15495 16.1462 16.1468 16.14397 16.14959 16.13517 16.16632
16.15539 16.14237 16.14078 16.14678 16.15954 16.14413 16.15644 16.15205 16.15074 16.13058
16.15889 16.16025 16.16766 16.15178 16.194 16.18945 16.16209 16.20288 16.16769 16.1848
16.18976 16.18329 16.18374 16.16127 16.18473 16.19825 16.17847 16.20285 16.23262 16.21098
16.23561 16.18896 16.19131 16.20073 16.20746 16.28443 16.27359 16.25291 16.22515 16.2284
16.25158 16.20453 16.20266 16.19385 16.19299 16.19985 16.20363 16.23149 16.24444 16.22664
16.21109 16.20277 16.21685 16.21238 16.21112 16.18504 16.22353 16.18404 16.255 16.26332
16.21238 16.21112 16.2589 16.17267 16.25827 16.25578 16.17468 16.24609 16.25304 16.24278
16.20975 16.18201 16.22362 16.17406 16.17259 16.16188 16.14099 16.13877 16.13862 16.14081
16.15345 16.14668 16.14647 16.15322 16.16736 16.16038 16.16012 16.16706 16.18201 16.17451
16.17419 16.18168 16.19835 16.18996 16.18963 16.19802 16.21526 16.20695 16.20665 16.215
16.22599 16.2223 16.22208 16.22581 16.17683 16.22266 16.22251 16.17668 16.1741 16.14458
16.15705 16.15322 16.141 16.17061 16.17398 16.1925 16.18973 16.21086 16.22674 16.22523
16.20869 16.23207 16.19314 16.18115 16.19201 16.23119 16.13421 16.13564 16.13322 16.13043
16.14544 16.14382 16.16549 16.17321 16.15769 16.11576 16.12189 16.14545 16.14385 16.17088
16.1724 16.17901 16.15799 16.17732 16.16705 16.17603 16.15983 16.18245 16.17412 16.15597
16.16058 16.14783 16.13322 16.17189 16.15597 16.16056 16.18136 16.19121 16.14399 16.1428
16.15148 16.13691 16.16774 16.12896 16.11873 16.13764 16.15347 16.12337 16.13164 16.1457
16.15247 16.12221 16.16476 16.1957 16.19407 16.19304 16.14985 16.17745 16.17952 16.18444
16.21162 16.21216 16.16742 16.21713 16.20294 16.19641 16.18799 16.16462 16.21127 16.19733
16.24882 16.24268 16.19059 16.22771 16.22704 16.20083 16.16495 16.18784 16.25698 16.21272
16.19827 16.20321 16.22101 16.25113 16.23415 16.1881 16.19046 16.1852 16.18349 16.18628
16.18685 16.24078 16.2278 16.2121 16.19833 16.20916 16.22458 16.19971 16.20413 16.19769
16.15534 16.18926 16.17164 16.19971 16.19424 16.15168 16.17164 16.15172 16.08236 16.1732
16.20636 16.19487 16.16687 16.16135 16.17568 16.1594 16.15904 16.14849 16.15548 16.15052
16.14842 16.15983 16.16161 16.15951 16.15445 16.16443 16.16828 16.17139 16.1652 16.17303
16.17859 16.18494 16.19202 16.18542 16.17811 16.2016 16.19329 16.19967 16.20755 16.21769
16.20997 16.21501 16.22067 16.223 16.22318 16.22098 16.18781 16.16972 16.18899 16.16187
16.14363 16.14439 16.15686 16.16566 16.15195 16.17378 16.19226 16.19894 16.18184 16.21058
16.22645 16.22962 16.21566 16.1928 16.1823 16.19344 16.23229 16.23178 16.13025 16.13307
16.13538 16.13389 16.17309 16.16534 16.14353 16.14519 16.1575 16.16838 16.17579 16.15548
16.17729 16.17081 16.17331 16.1647 16.16456 16.17314 16.15254 16.16517 16.16703 16.18173
16.16137 16.17849 16.17702 16.20023 16.18753 16.1634 16.15338 16.12081 16.13883 16.16331
16.15325 16.1517 16.15904 16.16332 16.13879 16.1603 16.12234 16.12811 16.1485 16.17603
16.19265 16.16582 16.14876 16.12867 16.12274 16.13485 16.13943 16.1587 16.13673 16.12894
16.13012 16.12101 16.1611 16.1225 16.12979 16.14407 16.15196 16.1463 16.1135 16.17608
16.17504 16.15636 16.1431 16.12541 16.16589 16.16986 16.21172 16.21456 16.1615 16.2032
16.20561 16.20336 16.21485 16.26236 16.27949 16.25811 16.19783 16.18946 16.19912 16.21673
16.23676 16.21501 16.18499 16.19103 16.18798 16.18613 16.18589 16.183 16.23026 16.23811
16.23284 16.22309 16.20682 16.21703 16.1716 16.19708 16.17997 16.2166 16.1784 16.16659
16.14906 16.12121 16.12172 16.14905 16.12121 16.17839 16.17159 16.14497 16.17039 16.076
16.08321 16.1757 16.1689 16.16936 16.17508 16.17533 16.1687 16.16862 16.17615 16.17751
16.17943 16.18193 16.17128 16.16953 16.17756 16.17395 16.1851 16.18911 16.18752 16.18211
16.19401 16.1997 16.20031 16.19365 16.20572 16.21107 16.21452 16.21436 16.21387 16.20727
16.21795 16.21855 16.18786 16.16791 16.1657 16.18533 16.15748 16.14027 16.14132 16.1488
16.16101 16.14829 16.1617 16.17643 16.1897 16.17517 16.19184 16.20719 16.21634 16.20381
16.22115 16.22965 16.19874 16.22386 16.20367 16.18373 16.16117 16.17711 16.13904 16.14027
16.15083 16.14673 16.11906 16.13205 16.11552 16.12173 16.12662 16.15052 16.17233 16.17898
16.16294 16.15133 16.17586 16.16684 16.17403 16.18238 16.15972 16.18163 16.16932 16.19114
16.1718 16.16689 16.20013 16.17694 16.15325 16.16324 16.18736 16.15088 16.12837 16.14865
16.12821 16.15075 16.17994 16.18903 16.18349 16.16488 16.14894 16.15966 16.11813 16.09958
16.09228 16.12341 16.11947 16.14133 16.09827 16.1102 16.10744 16.10746 16.12089 16.0875
16.11097 16.13702 16.13429 16.09141 16.11305 16.14864 16.1166 16.15308 16.19447 16.17118
16.13918 16.15143 16.1314 16.15434 16.20411 16.16411 16.19771 16.15139 16.20457 16.20881
16.20526 16.20587 16.21018 16.15191 16.17277 16.22963 16.20909 16.20292 16.22945 16.25078
16.26016 16.22873 16.20857 16.21669 16.21903 16.2117 16.19568 16.19678 16.17585 16.16662
16.16666 16.17709 16.13989 16.23427 16.23172 16.17584 16.16662 16.19751 16.1391 16.14775
16.12285 16.13232 16.12902 16.11561 16.11091 16.08231 16.08131 16.13232 16.11091 16.08231
16.12285 16.1391 16.14775 16.13578 16.1411 16.16898 16.18674 16.09378 16.12099 16.21803
16.21818 16.21961 16.18766 16.18664 16.19226 16.18954 16.22183 16.2243 16.20059 16.19593
16.22574 16.22327 16.21029 16.20558 16.19602 16.18301 16.18659 16.19144 16.21971 16.21521
16.19127 16.22052 16.19073 16.1839 16.18179 16.15449 16.1725 16.16684 16.15414 16.16763
16.14181 16.17263 16.15977 16.15658 16.18386 16.14435 16.15594 16.19528 16.16868 16.18264
16.21696 16.20664 16.19714 16.21071 16.20439 16.2242 16.21937 16.19614 16.18684 16.1871
16.18955 16.17929 16.16328 16.17622 16.17613 16.17736 16.16399 16.19886 16.21111 16.13177
16.16589 16.1855 16.14183 16.11702 16.12913 16.14223 16.1619 16.11831 16.12217 16.13193
16.12232 16.14887 16.14621 16.15496 16.13517 16.15769 16.1623 16.14958 16.15594 16.13321
16.14782 16.16054 16.12075 16.13874 16.15146 16.13689 16.14373 16.16011 16.13858 16.16319
16.15898 16.15164 16.18317 16.16466 16.16014 16.1759 16.19246 16.19543 16.10959 16.14245
16.1234 16.11941 16.12292 16.17188 16.18202 16.18589 16.18202 16.17186 16.16668 16.1171
16.08412 16.09861 16.13198 16.12008 16.15209 16.15418 16.18762 16.14696 16.16842 16.17354
16.16511 16.20881 16.13675 16.15924 16.14361 16.12205 16.14127 16.16358 16.21415 16.1622
16.21502 16.21149 16.1623 16.20723 16.17569 16.15336 16.15514 16.15832 16.2091 16.18158
16.24086 16.2601 16.25843 16.21453 16.16604 16.21116 16.18766 16.15717 16.21373 16.2557
16.25223 16.21116 16.18766 16.18656 16.20961 16.19317 16.20169 16.17986 16.16233 16.18657
16.17061 16.16011 16.16233 16.15737 16.14036 16.15189 16.12616 16.15211 16.11222 16.12917
16.13165 16.08847 16.07816 16.12406 16.13165 16.08847 16.11222 16.12918 16.12616 16.15211
16.23095 16.11674 16.06774 16.19506 16.23362 16.23162 16.19574 16.1979 16.23825 16.23614
16.20069 16.20359 16.23046 16.23783 16.20608 16.20737 16.18888 16.20097 16.20872 16.21246
16.1843 16.1616 16.18886 16.20096 16.19011 16.18914 16.21768 16.22147 16.16096 16.16389
16.1901 16.18913 16.19812 16.18526 16.15365 16.17982 16.21788 16.1606 16.15451 16.15364
16.17981 16.15628 16.16409 16.16325 16.16252 16.17368 16.18432 16.17819 16.16986 16.19571
16.20766 16.19431 16.18664 16.21919 16.22769 16.19269 16.19552 16.22942 16.19993 16.20171
16.19572 16.17435 16.15167 16.15408 16.15982 16.17434 16.15166 16.18171 16.19423 16.2036
16.18537 16.16579 16.16666 16.17389 16.21763 16.20585 16.18487 16.18839 16.12571 16.18821