# T  POINT_DATA 21909
#  x  y  z  T
-0.009064136 0 -0.07143301 16.38219
-0.008998931 0.0004811288 -0.0714338 16.4715
-0.005940038 0.0004785172 -0.07175296 16.50188
-0.005925065 0 -0.07176205 16.46135
-0.00898044 0.0009578404 -0.07143137 16.46711
-0.0089695 0.001436373 -0.07142495 16.46033
-0.005934916 0.001436798 -0.07174095 16.49435
-0.0059381 0.0009581339 -0.07174838 16.49896
0.006929683 0.003860204 -0.07154166 16.41607
0.003943365 0.003841591 -0.0717871 16.43879
0.003836514 0.004330438 -0.07176866 16.44978
0.006863935 0.004346919 -0.07153996 16.44334
0.005204042 0.006025698 -0.07140087 16.49146
0.003900136 0.006216758 -0.07146125 16.44358
0.004797213 0.006371223 -0.07120976 16.44457
0.006366027 0.006234497 -0.07118766 16.41871
-0.01690683 0 -0.0699918 16.37375
-0.01690176 0.0004660097 -0.06998652 16.42567
-0.01532724 0.0004735912 -0.07034807 16.44626
-0.01538505 0 -0.07034159 16.36501
0.01690683 0 -0.0699918 16.37375
0.01690176 0.0004660097 -0.06998652 16.42567
0.01935186 0.0004698033 -0.06934901 16.45268
0.01940642 0 -0.06933856 16.35872
-0.01688155 0.0009282242 -0.06998681 16.41531
-0.01699243 0.001429515 -0.0699516 16.41453
-0.01526929 0.001430949 -0.07034813 16.44356
-0.01531078 0.0009501014 -0.07034691 16.44003
0.01688155 0.0009282242 -0.06998681 16.41531
0.01699243 0.001429515 -0.0699516 16.41453
0.01777368 0.001616645 -0.06975301 16.39995
0.01900527 0.001440703 -0.06943144 16.39838
0.01927883 0.0009377069 -0.0693646 16.44466
-0.01495876 0.00237964 -0.07014781 16.43572
-0.01515212 0.001921017 -0.07035898 16.43907
-0.01772864 0.001967271 -0.0697555 16.36077
-0.017663 0.002428188 -0.06975769 16.35263
-0.01488045 0.003376585 -0.07036063 16.38419
-0.01463604 0.002872575 -0.07016436 16.4163
-0.01761708 0.002903936 -0.06975113 16.35773
-0.01759965 0.003386233 -0.06973374 16.3704
0.01330103 0.003020615 -0.07030311 16.42064
0.01332145 0.003373608 -0.07065588 16.37499
0.01488045 0.003376585 -0.07036063 16.38419
0.01463604 0.002872575 -0.07016436 16.4163
-0.01487963 0.004354511 -0.07031111 16.41418
-0.01489151 0.003871907 -0.07033717 16.40879
-0.01759379 0.003870672 -0.06970996 16.37864
-0.01758827 0.004353827 -0.06968283 16.38257
0.01326909 0.003870223 -0.07066092 16.41265
0.0132396 0.004354741 -0.07063839 16.42462
0.01487963 0.004354511 -0.07031111 16.41418
0.01489151 0.003871907 -0.07033717 16.40879
-0.01485914 0.005314044 -0.07024932 16.41879
-0.01486859 0.004834784 -0.07028195 16.41684
-0.01758016 0.004835229 -0.06965313 16.38608
-0.01756987 0.00531512 -0.06962075 16.3898
0.01322372 0.004835659 -0.0706099 16.43007
0.01321229 0.005315187 -0.07057752 16.43281
0.01485914 0.005314044 -0.07024932 16.41879
0.01486859 0.004834784 -0.07028195 16.41684
-0.01483585 0.006269192 -0.07017554 16.42262
-0.01484916 0.005792228 -0.07021362 16.42085
-0.01755647 0.005793293 -0.06958597 16.39412
-0.01753972 0.006270043 -0.06954886 16.39901
0.01320084 0.005793692 -0.07054205 16.43445
0.013187 0.006270977 -0.07050403 16.43465
0.01483585 0.006269192 -0.07017554 16.42261
0.01484916 0.005792228 -0.07021362 16.42084
-0.01476727 0.007220409 -0.0700999 16.41639
-0.01481274 0.006745134 -0.07013662 16.42252
-0.01752485 0.006749225 -0.06950776 16.40287
-0.01747511 0.007230127 -0.06947197 16.41789
0.01316757 0.006748337 -0.07046415 16.43087
0.01313449 0.007232288 -0.07041563 16.41462
0.01476727 0.007220409 -0.0700999 16.41639
0.01481274 0.006745134 -0.07013662 16.42251
-0.01458479 0.008160763 -0.0699942 16.42794
-0.01467715 0.007694786 -0.07006568 16.41605
-0.01734643 0.007709493 -0.06945145 16.43882
-0.0171799 0.00817979 -0.06940487 16.44698
0.01303149 0.007658066 -0.07013424 16.41003
0.0127134 0.008145667 -0.07011965 16.40336
0.01458479 0.008160763 -0.0699942 16.42793
0.01467715 0.007694786 -0.07006568 16.41604
-0.01291895 0.008678307 -0.07018658 16.40019
-0.01283342 0.009170064 -0.07024822 16.41645
-0.01111907 0.009171049 -0.07053987 16.4294
-0.01121779 0.008684553 -0.07055047 16.41073
0.01291895 0.008678307 -0.07018658 16.40018
0.01283342 0.009170064 -0.07024822 16.41645
0.01550816 0.009214193 -0.06969212 16.39206
0.01553238 0.008848374 -0.06962521 16.42841
0.01470526 0.008669575 -0.06989775 16.44072
-0.01270633 0.00965055 -0.07021243 16.41518
-0.01259582 0.01012346 -0.0701653 16.41225
-0.01091093 0.01007656 -0.07022245 16.4242
-0.01103066 0.009649069 -0.07048143 16.41806
0.01270633 0.00965055 -0.07021243 16.41517
0.01259582 0.01012346 -0.0701653 16.41225
0.0153898 0.01013964 -0.06960188 16.40557
0.01544476 0.009672148 -0.06965516 16.39973
-0.01250133 0.01059828 -0.07011242 16.41714
-0.01246169 0.01107834 -0.07003495 16.41605
-0.01077552 0.01109865 -0.07025409 16.36255
-0.01057517 0.0105646 -0.07020885 16.42663
0.009087432 0.01070472 -0.0702885 16.45341
0.009024249 0.01111183 -0.07043726 16.36842
0.01077552 0.01109865 -0.07025409 16.36254
0.01057517 0.0105646 -0.07020885 16.42662
0.01533963 0.01061037 -0.06954367 16.40993
0.01250133 0.01059828 -0.07011242 16.41714
0.01246169 0.01107834 -0.07003495 16.41604
0.01528879 0.01108556 -0.06947225 16.40709
-0.01241094 0.0115227 -0.06981593 16.43166
-0.01249937 0.01201585 -0.06970258 16.45078
-0.01058548 0.01202547 -0.06999299 16.38552
-0.01070047 0.01154837 -0.07005002 16.36771
0.00885105 0.0115031 -0.07010176 16.37941
0.00847126 0.01198164 -0.07007286 16.38571
0.01058548 0.01202547 -0.06999299 16.38552
0.01070047 0.01154837 -0.07005002 16.36771
0.01241094 0.0115227 -0.06981593 16.43165
0.01249937 0.01201585 -0.06970258 16.45078
0.01374167 0.01181967 -0.06956173 16.48455
0.0138365 0.01150276 -0.06961011 16.46641
-0.01035302 0.0130434 -0.07001895 16.39836
-0.01047561 0.01253018 -0.07010236 16.40224
-0.01330005 0.01257349 -0.06960283 16.3897
-0.01318904 0.01306701 -0.06953862 16.38897
-0.00867885 0.01253044 -0.07034307 16.3492
-0.008573217 0.01305643 -0.07025113 16.35058
-0.006706973 0.01296387 -0.0701714 16.37948
-0.006876274 0.01253266 -0.07044643 16.35515
0.00867885 0.01253044 -0.07034307 16.3492
0.008573217 0.01305643 -0.07025113 16.35058
0.01035302 0.0130434 -0.07001895 16.39836
0.01047561 0.01253018 -0.07010236 16.40224
-0.01168874 0.01345985 -0.0694898 16.44135
-0.01158956 0.01380607 -0.06943759 16.46732
-0.01030702 0.01405416 -0.06958246 16.43904
-0.0102374 0.01348139 -0.06970763 16.41472
-0.008413049 0.01350372 -0.0698825 16.36441
-0.008308869 0.0140764 -0.06979287 16.38948
-0.006369715 0.01413108 -0.07022739 16.36738
-0.006263676 0.01347463 -0.07013973 16.39983
0.004655064 0.01359979 -0.0702327 16.41433
0.004217162 0.01411601 -0.07046486 16.36968
0.006369715 0.01413108 -0.07022739 16.36738
0.006263676 0.01347463 -0.07013973 16.39983
0.008413049 0.01350372 -0.0698825 16.36441
0.008308869 0.0140764 -0.06979287 16.38948
0.01030702 0.01405416 -0.06958246 16.43904
0.0102374 0.01348139 -0.06970763 16.41472
-0.00816439 0.01474467 -0.06979182 16.37384
-0.008123796 0.01553724 -0.06968349 16.37217
-0.00615854 0.01557272 -0.06987687 16.32697
-0.006269492 0.01478943 -0.06999122 16.34599
-0.004252361 0.01484426 -0.07032473 16.34037
-0.004167042 0.01564577 -0.07015701 16.30674
-0.002086256 0.01566887 -0.07024371 16.2986
-0.002035573 0.01478069 -0.07043805 16.34187
-1.296331e-13 0.01488875 -0.07044412 16.34566
-1.116933e-13 0.01568376 -0.07027116 16.29338
0.002086256 0.01566887 -0.07024371 16.2986
0.002035573 0.01478069 -0.07043805 16.34187
0.004252361 0.01484426 -0.07032473 16.34037
0.004167042 0.01564577 -0.07015701 16.30674
0.00615854 0.01557272 -0.06987687 16.32697
0.006269492 0.01478943 -0.06999122 16.34599
0.00816439 0.01474467 -0.06979182 16.37384
0.008123796 0.01553724 -0.06968349 16.37217
0.009495395 0.0152311 -0.06956575 16.3964
0.009713625 0.01474324 -0.06960958 16.40897
-0.004278581 0.01791074 -0.06960536 16.31278
-0.002682747 0.01797843 -0.06966763 16.31295
-0.002024583 0.01749784 -0.06981212 16.32861
-0.002064412 0.01655446 -0.07004072 16.2996
-0.004069916 0.01648712 -0.06996928 16.32894
-6.407711e-14 0.01657528 -0.07006614 16.28181
-2.963522e-14 0.01741896 -0.06986116 16.31343
0.002024583 0.01749784 -0.06981212 16.32861
0.002064412 0.01655446 -0.07004072 16.29959
0.004069916 0.01648712 -0.06996928 16.32894
0.004278581 0.01791074 -0.06960536 16.31278
0.006302719 0.01766608 -0.06951396 16.31861
0.006851871 0.01688607 -0.06965202 16.34572
0.006090001 0.01647622 -0.06982318 16.35503
0.02178952 0 -0.06862723 16.30483
0.02173994 0.0004839719 -0.06863775 16.41834
0.02422283 0.0004851612 -0.06780132 16.33094
0.02428084 0 -0.06778668 16.21949
0.0241982 0.0009600264 -0.06780506 16.32904
0.021702 0.0009649152 -0.06864468 16.4184
0.02166891 0.001446078 -0.06864669 16.41743
0.02418787 0.001441778 -0.06780021 16.32613
0.02165121 0.001928296 -0.06864042 16.41377
0.02163699 0.002412143 -0.0686296 16.41017
0.02407253 0.002414488 -0.06781359 16.34779
0.02415849 0.001927793 -0.06779861 16.33342
0.02162145 0.002896886 -0.06861575 16.40858
0.02160658 0.003381648 -0.06859825 16.40861
0.02394414 0.00338507 -0.06781755 16.3571
0.02398966 0.002901144 -0.06782389 16.35319
0.02159432 0.003865922 -0.06857653 16.40954
0.02158369 0.004349183 -0.06855092 16.411
0.02389619 0.004354808 -0.06777911 16.36413
0.02391564 0.00386989 -0.06780167 16.36068
0.02388119 0.004838789 -0.06775157 16.36769
0.02157288 0.004831138 -0.06852205 16.41286
0.02155964 0.005311526 -0.06849065 16.41504
0.02386673 0.00532156 -0.06772046 16.37181
0.02153985 0.005789604 -0.06845813 16.41739
0.02150519 0.006263504 -0.0684273 16.41935
0.02382303 0.006285112 -0.06765324 16.38335
0.02384888 0.005803457 -0.06768715 16.37694
0.02143428 0.006731551 -0.0684051 16.41855
0.02115995 0.007233427 -0.06843927 16.37925
0.02375307 0.007245286 -0.06758178 16.39689
0.02378832 0.006766095 -0.06761905 16.39061
-0.02133638 0.007737512 -0.06832928 16.35831
-0.02132347 0.008207186 -0.06827849 16.35677
-0.01981378 0.008224313 -0.06872967 16.35552
-0.01989149 0.007767601 -0.06876037 16.34949
0.02133638 0.007737512 -0.06832928 16.35831
0.02132347 0.008207186 -0.06827849 16.35677
0.02370689 0.008199301 -0.06748892 16.40311
0.02373046 0.007723204 -0.06753679 16.40048
-0.02128374 0.008674306 -0.06823312 16.35888
-0.02125193 0.00913802 -0.0681825 16.35802
-0.01972551 0.009172219 -0.06863506 16.37048
-0.01975295 0.008694455 -0.06868931 16.36397
0.02128374 0.008674306 -0.06823312 16.35888
0.02125193 0.00913802 -0.0681825 16.35802
0.02358604 0.009134214 -0.06741116 16.40403
0.02366654 0.008670588 -0.06744417 16.40541
-0.01957109 0.01013331 -0.06854405 16.40833
-0.01968205 0.009653175 -0.06858156 16.38628
-0.02135352 0.009641726 -0.06808131 16.36055
-0.02211304 0.009832333 -0.06781103 16.36106
-0.02206851 0.01017999 -0.06777423 16.32531
-0.01931955 0.01107746 -0.06847043 16.42616
-0.01944538 0.01060973 -0.06850791 16.41903
-0.02197573 0.01064167 -0.06773343 16.33986
-0.02183032 0.01111792 -0.06770394 16.36669
-0.0216966 0.01159635 -0.06766667 16.38399
-0.021616 0.0120715 -0.06760937 16.39593
-0.01915357 0.01208056 -0.0683469 16.37441
-0.01899685 0.01157877 -0.06847851 16.3948
0.01772964 0.01176573 -0.06878346 16.40263
0.01766225 0.01211263 -0.06874192 16.37162
0.01915357 0.01208056 -0.0683469 16.3744
0.01899685 0.01157877 -0.06847851 16.3948
-0.01907643 0.01302093 -0.06819518 16.3778
-0.01912379 0.01254796 -0.06827064 16.37589
-0.02154544 0.01254656 -0.06754538 16.40533
-0.02144405 0.01302379 -0.0674873 16.41186
0.01758783 0.01256988 -0.06867883 16.38317
0.01753462 0.01305457 -0.06860186 16.39217
0.01907643 0.01302093 -0.06819518 16.3778
0.01912379 0.01254796 -0.06827064 16.37588
0.01744438 0.01357058 -0.06852157 16.40826
0.01721143 0.01410256 -0.06832773 16.42243
0.01982729 0.0142108 -0.06774167 16.33866
0.01991026 0.01377028 -0.06780826 16.37653
0.01914553 0.0135639 -0.06806996 16.38369
-0.01676825 0.01479184 -0.06830143 16.3644
-0.01683747 0.01566594 -0.06822715 16.32651
-0.01530623 0.01569121 -0.06856287 16.32803
-0.01541859 0.01499731 -0.0684942 16.36784
0.01676825 0.01479184 -0.06830143 16.36439
0.01683747 0.01566594 -0.06822715 16.32651
0.01941938 0.01565476 -0.06754134 16.34934
0.01966891 0.01486131 -0.06764822 16.33905
-0.01479011 0.01764079 -0.06822145 16.33982
-0.01483988 0.01662208 -0.06846675 16.33781
-0.0168176 0.01660519 -0.06801176 16.35489
-0.01763364 0.01693667 -0.06772139 16.33359
-0.01742263 0.01769596 -0.06758189 16.34297
0.01336176 0.01693337 -0.06867411 16.35195
0.01315448 0.01767745 -0.06849943 16.34543
0.01479011 0.01764079 -0.06822145 16.33982
0.01483988 0.01662208 -0.06846675 16.33781
-0.01260634 0.01866355 -0.0683602 16.36114
-0.01264765 0.01979184 -0.06806084 16.36086
-0.01054262 0.01979579 -0.06841624 16.3459
-0.01107388 0.01897715 -0.068502 16.37341
0.01264765 0.01979184 -0.06806084 16.36085
0.01343149 0.02017857 -0.06779631 16.33552
0.01494027 0.01984979 -0.06757788 16.31988
0.01542645 0.01903166 -0.06770365 16.3522
0.01464331 0.01863914 -0.06798681 16.37177
0.01260634 0.01866355 -0.0683602 16.36114
-0.0102663 0.02178463 -0.06785306 16.36562
-0.01039103 0.02082487 -0.06813487 16.34033
-0.01319042 0.02092739 -0.06761694 16.32011
-0.01258496 0.02188919 -0.06742761 16.34186
-0.01104128 0.02220496 -0.06759458 16.35041
-0.008370729 0.02083427 -0.06840953 16.31874
-0.008333166 0.02183915 -0.06810001 16.32315
-0.006365554 0.02196821 -0.06827062 16.27609
-0.006381723 0.02110426 -0.06854109 16.30582
0.004791142 0.02119675 -0.06864213 16.29854
0.004145037 0.0219237 -0.06845561 16.27677
0.006365554 0.02196821 -0.06827062 16.27609
0.006381723 0.02110426 -0.06854109 16.30582
0.008370729 0.02083427 -0.06840953 16.31874
0.008333166 0.02183915 -0.06810001 16.32314
0.0102663 0.02178463 -0.06785306 16.36561
0.01039103 0.02082487 -0.06813487 16.34033
-0.004134355 0.02435662 -0.06762886 16.26629
-0.002091974 0.02442447 -0.06769837 16.24003
-0.002077627 0.02293495 -0.06821782 16.26599
-0.004120801 0.02288254 -0.06814256 16.28675
4.259058e-17 0.02296355 -0.06823984 16.25421
1.65672e-17 0.02444397 -0.06772365 16.22962
0.002091974 0.02442447 -0.06769837 16.24003
0.002077627 0.02293495 -0.06821782 16.26599
0.004120801 0.02288254 -0.06814256 16.28675
0.004134355 0.02435662 -0.06762886 16.26629
0.006250322 0.02413362 -0.06754629 16.26736
0.006922264 0.02339509 -0.06774033 16.2827
0.006242706 0.02291994 -0.06796841 16.30954
-0.02798267 0.0004728822 -0.06633812 16.39345
-0.02802693 0 -0.06632421 16.29347
-0.03014076 0 -0.06539008 16.28628
-0.03009863 0.0004731111 -0.06540527 16.38859
-0.02787197 0.001405559 -0.06637151 16.37218
-0.02794342 0.0009428783 -0.06634965 16.3864
-0.03005903 0.0009435103 -0.06541838 16.38285
-0.03001585 0.001407212 -0.06542988 16.36855
-0.02774534 0.002395608 -0.06639621 16.28775
-0.02760428 0.001900894 -0.06647097 16.3196
-0.03006515 0.001908098 -0.06539454 16.32892
-0.02970949 0.002406433 -0.06554048 16.30675
0.02648006 0.002103001 -0.06692073 16.31161
0.02644296 0.002450111 -0.06692359 16.27162
0.02774534 0.002395608 -0.06639621 16.28775
0.02760428 0.001900894 -0.06647097 16.3196
0.0263709 0.002914895 -0.06693339 16.2783
0.02626819 0.003394669 -0.06695117 16.29423
0.02843744 0.003438654 -0.0660567 16.26304
0.02848801 0.00309571 -0.06605187 16.2999
0.02782659 0.00290711 -0.06634177 16.27384
0.02838497 0.003895596 -0.0660539 16.26981
0.02618511 0.003879396 -0.06695738 16.30376
0.02614546 0.004362563 -0.06694313 16.31166
0.02835259 0.004370041 -0.06603812 16.27773
0.02612369 0.004846569 -0.06691833 16.31853
0.02610772 0.005330428 -0.06688777 16.32501
0.02831527 0.005335261 -0.06598318 16.29264
0.02833166 0.004851567 -0.06601348 16.28545
0.02609236 0.005813348 -0.06685353 16.33153
0.02607562 0.006295071 -0.06681642 16.33815
0.0282834 0.006300732 -0.06591168 16.30534
0.02829969 0.005818611 -0.06594901 16.29929
0.02605719 0.006775517 -0.06677661 16.34491
0.02603749 0.007254695 -0.06673394 16.35203
0.0282472 0.007261065 -0.06582836 16.31743
0.02826595 0.006781521 -0.06587145 16.3111
0.02822692 0.007739431 -0.06578254 16.32505
0.02601634 0.00773285 -0.06668848 16.35975
0.02599113 0.008210352 -0.06664121 16.36813
0.02820454 0.008216671 -0.06573424 16.33406
0.02595609 0.008687393 -0.06659437 16.37691
0.0259066 0.009162542 -0.06654995 16.38503
0.02814679 0.009168062 -0.06563311 16.35395
0.02817873 0.008692859 -0.06568404 16.34396
0.02584289 0.009632774 -0.0665083 16.38938
0.02575821 0.01009662 -0.06647234 16.38418
0.02804453 0.01011311 -0.065538 16.36893
0.02810351 0.00964213 -0.0655837 16.36293
-0.02548372 0.01059628 -0.06650037 16.33528
-0.02565177 0.01108948 -0.06635518 16.30273
-0.02427481 0.01115586 -0.06686015 16.28999
-0.02431844 0.0108132 -0.06690058 16.33051
0.02548372 0.01059628 -0.06650037 16.33528
0.02565177 0.01108948 -0.06635518 16.30273
0.02788899 0.01103494 -0.06545559 16.35269
0.02797157 0.01057744 -0.06549587 16.36755
-0.02404141 0.01209089 -0.06678189 16.33105
-0.0241841 0.01161542 -0.06681475 16.30381
-0.02575743 0.01159555 -0.06622762 16.29289
-0.0264639 0.01179222 -0.06591362 16.31077
-0.0263263 0.01214101 -0.0659054 16.28229
-0.02380565 0.01306416 -0.06668297 16.37312
-0.02390561 0.01257452 -0.06674131 16.35259
-0.0261786 0.01260311 -0.06587748 16.30229
-0.02608289 0.01308508 -0.06582145 16.32455
-0.02359743 0.01412179 -0.06654124 16.38297
-0.02371143 0.01357255 -0.06661497 16.38873
-0.02600033 0.01359629 -0.06575046 16.34595
-0.02590158 0.01415193 -0.06567215 16.35856
-0.02554888 0.01566536 -0.06546641 16.26872
-0.02422379 0.01598151 -0.06589233 16.2764
-0.02349834 0.01570152 -0.06622152 16.26774
-0.02327947 0.01480769 -0.06650413 16.30686
-0.02576975 0.01478114 -0.06558535 16.3292
0.02208223 0.01508713 -0.06684872 16.3052
0.02192847 0.01575291 -0.06674568 16.28233
0.02349834 0.01570152 -0.06622152 16.26775
0.02327947 0.01480769 -0.06650413 16.30687
0.02163515 0.01663871 -0.06662637 16.32567
0.02114559 0.01763853 -0.06652629 16.31307
0.02371852 0.01765252 -0.06564922 16.31648
0.02400073 0.01672963 -0.06578818 16.2758
-0.01907546 0.01979292 -0.06654598 16.32377
-0.0196302 0.01878741 -0.06667598 16.31742
-0.02125587 0.01874632 -0.06618734 16.30235
-0.0219901 0.0191051 -0.06584398 16.31642
-0.02170551 0.01988355 -0.0657078 16.31553
0.01744838 0.02093766 -0.06664209 16.32169
0.01682127 0.0219182 -0.06648787 16.33994
0.01960509 0.02202808 -0.06568412 16.30618
0.01986281 0.02126918 -0.06585659 16.29925
0.01911027 0.02090517 -0.06619495 16.30903
-0.01477839 0.02410011 -0.0662177 16.30884
-0.0148361 0.02304595 -0.06657908 16.31286
-0.0167977 0.02298181 -0.06613376 16.33157
-0.0175636 0.02336619 -0.06579925 16.31972
-0.01702932 0.02416659 -0.06565042 16.29111
-0.0155182 0.02450909 -0.06589757 16.29439
0.0133008 0.02336968 -0.06679032 16.32259
0.0127284 0.02414842 -0.06662463 16.29816
0.01477839 0.02410011 -0.0662177 16.30884
0.0148361 0.02304595 -0.06657908 16.31285
-0.0104701 0.0262567 -0.06621905 16.29555
-0.01056198 0.02522298 -0.06660515 16.29016
-0.01264768 0.02519703 -0.06625063 16.29636
-0.01337566 0.02560848 -0.0659492 16.27836
-0.01282106 0.02638334 -0.06575363 16.24836
-0.01121616 0.02667419 -0.0659294 16.27365
0.008956226 0.02550857 -0.06673154 16.29911
0.008325231 0.02624626 -0.06652687 16.28514
0.0104701 0.0262567 -0.06621905 16.29555
0.01056198 0.02522298 -0.06660515 16.29016
-0.006261871 0.02732966 -0.06631651 16.25072
-0.008278178 0.02727064 -0.06611947 16.2915
-0.009017571 0.02770104 -0.06584327 16.27586
-0.008426979 0.02843549 -0.06560799 16.25766
-0.006386943 0.02871859 -0.06571491 16.2415
-0.004100358 0.02732687 -0.06648631 16.24578
-0.004089769 0.02834258 -0.06606037 16.25956
-0.001988553 0.02831033 -0.06617077 16.23
-0.001998086 0.02751295 -0.06650598 16.23229
-1.877447e-19 0.02753574 -0.06652656 16.21597
4.872706e-19 0.02833067 -0.06619194 16.21141
0.001988553 0.02831033 -0.06617077 16.23
0.001998086 0.02751295 -0.06650598 16.23229
0.004100358 0.02732687 -0.06648631 16.24578
0.004089769 0.02834258 -0.06606037 16.25956
0.004775743 0.02881209 -0.06581076 16.23666
0.006386943 0.02871859 -0.06571491 16.2415
0.006261871 0.02732966 -0.06631651 16.25072
0.03289847 0 -0.06404742 16.15685
0.03197423 0 -0.0645132 16.26576
0.03192826 0.0004762934 -0.06453185 16.33957
0.03285807 0.0004885433 -0.06406332 16.28525
0.03282437 0.0009654128 -0.06407518 16.28164
0.03188921 0.0009511415 -0.06454591 16.33296
0.03182309 0.001422573 -0.06456986 16.31543
0.03277263 0.001451892 -0.06409248 16.27276
0.03070893 0.002119189 -0.06508818 16.31303
0.03064345 0.002462675 -0.06510694 16.27865
0.03270515 0.002427946 -0.06409741 16.24625
0.03272112 0.001941683 -0.06410584 16.25752
0.03158899 0.001934588 -0.06467143 16.27984
0.03056822 0.002927379 -0.06512307 16.26342
0.0305436 0.003404007 -0.06511145 16.25599
0.03268825 0.003393937 -0.06406215 16.24939
0.03270105 0.002912153 -0.06407933 16.24684
0.03053749 0.003885874 -0.06508734 16.25877
0.03052317 0.004367422 -0.06506352 16.26369
0.03266167 0.004361439 -0.06401713 16.25716
0.03267499 0.003877245 -0.06404149 16.25296
0.03264732 0.004845413 -0.06398964 16.26168
0.03050771 0.004850858 -0.06503652 16.26933
0.03049212 0.005334756 -0.06500593 16.275
0.03263137 0.005328497 -0.06395937 16.26622
0.03047582 0.005817888 -0.06497212 16.28039
0.03045832 0.0062998 -0.06493538 16.28537
0.03259312 0.0062914 -0.06389137 16.27544
0.03261343 0.005810466 -0.06392654 16.27077
0.03043946 0.006780473 -0.0648958 16.29025
0.03041921 0.007259943 -0.06485341 16.29595
0.03254592 0.007250728 -0.06381371 16.2872
0.03257044 0.006771492 -0.06385384 16.28066
0.0303975 0.007738163 -0.06480828 16.3033
0.03037401 0.008215039 -0.06476058 16.31226
0.03249277 0.008205955 -0.06372505 16.30476
0.03252003 0.007728876 -0.06377078 16.29546
0.03246096 0.008681643 -0.06367822 16.31377
0.03034781 0.008690559 -0.06471078 16.32213
0.03031716 0.009164924 -0.06465968 16.3321
0.03241653 0.009155268 -0.0636345 16.32323
0.03027917 0.009638319 -0.06460863 16.34122
0.03022597 0.01010931 -0.06456154 16.34794
0.03227922 0.01009289 -0.06356246 16.33397
0.03235044 0.009626151 -0.06359863 16.33222
0.03014121 0.01057488 -0.06452658 16.35117
0.03000669 0.01103464 -0.06451229 16.34743
0.03188866 0.01110109 -0.0635915 16.30218
0.03228986 0.01060065 -0.06347433 16.3127
-0.0284755 0.01215012 -0.065004 16.26067
-0.02857405 0.01179818 -0.06502558 16.30023
-0.0297859 0.01158163 -0.06451873 16.28877
-0.03059061 0.01180442 -0.06410047 16.30464
-0.0305504 0.01215056 -0.06405495 16.25814
-0.03049803 0.01261083 -0.06399091 16.27001
-0.0304422 0.01309125 -0.06392098 16.28633
-0.02828663 0.01309559 -0.06490279 16.29596
-0.02836547 0.01261558 -0.06496343 16.27592
-0.02812688 0.01417223 -0.06474586 16.33147
-0.02821627 0.01360796 -0.06482797 16.31699
-0.03038059 0.01360368 -0.06384324 16.30429
-0.03030139 0.01416763 -0.06375817 16.31623
-0.02759795 0.01564978 -0.0646331 16.25989
-0.02797904 0.01481769 -0.06466537 16.31638
-0.03019888 0.01481396 -0.06365983 16.29743
-0.03015685 0.01565068 -0.06347929 16.26597
0.02628726 0.01674096 -0.06490547 16.23071
0.02600898 0.01769343 -0.06476477 16.28137
0.02821389 0.01777248 -0.06381313 16.25792
0.02840654 0.01699586 -0.0639391 16.26505
0.02774864 0.01667117 -0.0643124 16.24099
-0.02551488 0.01872248 -0.06467194 16.27528
-0.02564459 0.01982565 -0.06429074 16.25635
-0.0240972 0.01991849 -0.06485814 16.25415
-0.02426527 0.01913155 -0.06503215 16.25995
0.02795977 0.01870628 -0.06365788 16.304
0.02551488 0.01872248 -0.06467194 16.27528
0.02564459 0.01982565 -0.06429074 16.25634
0.02632118 0.02017324 -0.06390803 16.27872
0.02760656 0.01978363 -0.06348611 16.28891
-0.02338341 0.02196067 -0.06445886 16.3032
-0.02379645 0.02087594 -0.0646678 16.30827
-0.02604845 0.0209388 -0.06377339 16.27652
-0.02561329 0.0220103 -0.06358857 16.27178
-0.02419815 0.02237875 -0.06401282 16.27621
0.0211582 0.02412115 -0.06445542 16.31804
0.02201961 0.02452587 -0.06401264 16.26782
0.02332458 0.02413448 -0.06369844 16.28187
0.02389604 0.0231461 -0.06385325 16.27806
0.02164273 0.0230814 -0.06467489 16.31809
-0.01909427 0.02627593 -0.06425717 16.27083
-0.01913663 0.02525128 -0.06465417 16.28231
-0.02178224 0.02526101 -0.06380764 16.27285
-0.02128235 0.02630771 -0.06355286 16.29045
-0.01976449 0.02665412 -0.06389776 16.29828
0.01773436 0.02562042 -0.06490829 16.27386
0.01745643 0.0263414 -0.0646947 16.283
0.01909427 0.02627593 -0.06425717 16.27083
0.01913663 0.02525128 -0.06465417 16.28231
-0.0146906 0.02841423 -0.0645044 16.30481
-0.01531745 0.02766464 -0.06468418 16.32537
-0.01689866 0.0273561 -0.06442111 16.31212
-0.01773592 0.02778682 -0.06401039 16.25528
-0.01744272 0.02849118 -0.06378091 16.27637
-0.01274241 0.03089168 -0.06377566 16.25553
-0.01125775 0.0310647 -0.06397068 16.22416
-0.0105894 0.03064513 -0.0642864 16.2408
-0.01065898 0.02977 -0.06468488 16.25768
-0.0125882 0.02942125 -0.0644975 16.28929
0.009097494 0.0299175 -0.06485506 16.24072
0.008384721 0.03061647 -0.06462452 16.24538
0.0105894 0.03064513 -0.0642864 16.24081
0.01065898 0.02977 -0.06468488 16.25768
0.0125882 0.02942125 -0.0644975 16.28929
0.01274241 0.03089168 -0.06377566 16.25553
0.01468989 0.03057353 -0.06350958 16.30669
0.01528003 0.02978088 -0.06374653 16.32685
0.01459357 0.0293957 -0.06408526 16.30067
-0.00627533 0.03160357 -0.06438816 16.22392
-0.008265008 0.03158552 -0.06417199 16.26084
-0.008961096 0.03201929 -0.06386285 16.24653
-0.008293432 0.0326869 -0.06361435 16.25576
-0.006232077 0.03296617 -0.06370552 16.23399
-0.004126089 0.03157071 -0.0645776 16.23261
-0.004206206 0.03306647 -0.06381941 16.19586
-0.002116104 0.03311816 -0.06389608 16.17418
-0.00202216 0.03174877 -0.06459045 16.23479
-5.757135e-19 0.03178011 -0.06460669 16.21816
3.275803e-19 0.03313783 -0.06392092 16.16299
0.002116104 0.03311816 -0.06389608 16.17418
0.00202216 0.03174877 -0.06459045 16.23479
0.004126089 0.03157071 -0.0645776 16.23262
0.004206206 0.03306647 -0.06381941 16.19586
0.006232077 0.03296617 -0.06370552 16.23399
0.00627533 0.03160357 -0.06438816 16.22392
0.03489766 0 -0.06298047 16.10646
0.03485928 0.0004865855 -0.06299678 16.2345
0.03681441 0.0004821195 -0.0618746 16.26686
0.03684663 0 -0.06186 16.14779
0.03483767 0.0009669569 -0.06300319 16.23576
0.03482051 0.001449766 -0.06300341 16.23862
0.03678641 0.00144834 -0.06187618 16.26927
0.03679777 0.0009646528 -0.06187886 16.26745
0.03480639 0.001934124 -0.06299821 16.24188
0.03479503 0.002418858 -0.06298774 16.24504
0.03676921 0.002416759 -0.06185616 16.27469
0.03677762 0.001932582 -0.06186818 16.27175
0.03478509 0.002903395 -0.06297276 16.2484
0.03477477 0.003387514 -0.06295427 16.25236
0.03674924 0.0033833 -0.06182271 16.28182
0.03675996 0.00290042 -0.06184087 16.27804
0.03476303 0.003871076 -0.06293287 16.2569
0.03474939 0.004353862 -0.06290885 16.26169
0.03672098 0.004345635 -0.06177932 16.28986
0.03673654 0.003865174 -0.061802 16.28588
0.03473362 0.004835766 -0.06288236 16.26635
0.03471588 0.005317166 -0.06285329 16.27064
0.03667534 0.005297756 -0.06173211 16.29336
0.03670097 0.004823742 -0.06175573 16.29295
0.03469442 0.005798124 -0.0628226 16.27451
0.03466392 0.00627854 -0.06279325 16.27963
0.03672087 0.006280094 -0.06161281 16.26083
0.03665129 0.0057674 -0.0617043 16.28628
0.03461871 0.006759365 -0.06276827 16.28772
0.03457208 0.007239915 -0.06274038 16.29732
0.03634804 0.007254476 -0.06172676 16.26177
0.03643857 0.006783583 -0.06172693 16.25615
0.03452999 0.00771766 -0.0627066 16.30693
0.03448978 0.008190047 -0.0626688 16.3145
0.03623817 0.008200379 -0.06167292 16.27538
0.03629221 0.007727725 -0.06170217 16.2696
0.03445334 0.00865662 -0.06262611 16.31448
0.03450646 0.00916364 -0.06252465 16.29405
0.03509931 0.009382087 -0.0621612 16.27793
0.03592554 0.009180086 -0.06171776 16.24331
0.03615998 0.008669912 -0.06165459 16.26915
-0.03418605 0.0096627 -0.06262545 16.2902
-0.03504373 0.009713616 -0.06214163 16.25441
-0.03494728 0.01017377 -0.06212232 16.25063
-0.03403652 0.01012589 -0.06263371 16.28396
-0.03279714 0.01117046 -0.06311552 16.2692
-0.03288926 0.01083034 -0.06312686 16.29482
-0.03375894 0.01063225 -0.06269999 16.26049
-0.0348565 0.01065097 -0.06209333 16.24489
-0.0348052 0.01113001 -0.06203806 16.24653
-0.03263624 0.01210592 -0.06302637 16.26257
-0.03268835 0.01163253 -0.06308848 16.2615
-0.03476814 0.01160859 -0.0619711 16.25697
-0.03472118 0.0120843 -0.06190645 16.26796
-0.03255581 0.0130733 -0.06287454 16.28766
-0.03260326 0.01258534 -0.06294948 16.27364
-0.03466348 0.01256195 -0.06184368 16.28059
-0.03458566 0.01304747 -0.06178669 16.29484
-0.03239999 0.01414242 -0.06272346 16.31288
-0.03249308 0.01358611 -0.06279823 16.30268
-0.0345021 0.01355389 -0.06172436 16.30185
-0.03449721 0.01415927 -0.06159105 16.27959
-0.03199049 0.01566323 -0.06257213 16.22981
-0.03225196 0.0147743 -0.06265406 16.28981
-0.03407267 0.01486389 -0.06166131 16.25656
-0.03365127 0.01570267 -0.06168483 16.22635
-0.03273063 0.01598913 -0.06210518 16.23002
0.03259735 0.0167349 -0.06197867 16.20761
0.03057625 0.01674309 -0.06299811 16.22405
0.03035496 0.01769751 -0.06284405 16.24264
0.03239891 0.01766071 -0.06182564 16.24762
-0.03023694 0.01873477 -0.06259981 16.2679
-0.03083214 0.01915222 -0.06218176 16.23254
-0.03056595 0.01993968 -0.06206554 16.22886
-0.02941585 0.01983971 -0.06265057 16.27121
-0.02779149 0.02202507 -0.06266203 16.25075
-0.0281479 0.02095008 -0.06287122 16.26466
-0.0302724 0.02090368 -0.06189199 16.2596
-0.02992668 0.02200367 -0.06167846 16.24572
-0.02860376 0.0224185 -0.06215493 16.23457
0.02616448 0.02319669 -0.06293913 16.24411
0.02583792 0.02413477 -0.06272093 16.2988
0.02802533 0.02414129 -0.06177199 16.28885
0.0283574 0.02319835 -0.0619814 16.22532
-0.02542341 0.02518593 -0.06247655 16.30158
-0.02623687 0.02558187 -0.06197737 16.2835
-0.02594266 0.02632855 -0.06178823 16.28497
-0.02346712 0.02633812 -0.06276621 16.25898
-0.02402582 0.02554507 -0.0628825 16.30172
0.02182986 0.02745032 -0.06288034 16.25137
0.0212864 0.02848758 -0.06260469 16.27804
0.02210185 0.02890554 -0.06212872 16.22603
0.02347616 0.02851267 -0.06180532 16.24594
0.02405706 0.0277313 -0.06193733 16.28352
0.0234124 0.02736323 -0.06234672 16.24939
-0.01899203 0.03061507 -0.06233796 16.26436
-0.01910057 0.02959834 -0.06279416 16.26446
-0.0218151 0.02962116 -0.06189256 16.24448
-0.02125048 0.03064741 -0.06158858 16.27746
-0.0196957 0.03098938 -0.06193333 16.28964