/*--------------------------------*- C++ -*----------------------------------*\
| =========                 |                                                 |
| \\      /  F ield         | OpenFOAM: The Open Source CFD Toolbox           |
|  \\    /   O peration     | Version:  5.x                                   |
|   \\  /    A nd           | Web:      www.OpenFOAM.org                      |
|    \\/     M anipulation  |                                                 |
\*---------------------------------------------------------------------------*/
FoamFile
{
    version     2.0;
    format      ascii;
    class       volScalarField;
    location    "40/tissue";
    object      T;
}
// * * * * * * * * * * * * * * * * * * * * * * * * * * * * * * * * * * * * * //

dimensions      [0 0 0 1 0 0 0];

internalField   nonuniform List<scalar> 
87936
(
32.88064
33.17826
33.19692
33.12995
32.8702
33.15943
33.17859
33.11019
32.85492
33.12062
33.13939
33.07003
32.85117
33.06918
33.08653
33.01519
33.00569
33.02476
32.83352
32.9371
32.96116
32.75162
32.86464
32.90313
32.69996
32.69537
32.85625
32.68617
33.32915
33.81159
34.19595
34.51008
34.56677
34.37731
34.0694
33.40396
33.00552
33.30359
33.77064
34.16466
34.47048
34.52756
34.33867
34.03541
33.38942
33.0273
33.14581
33.66234
34.10281
34.39045
34.44829
34.2586
33.96176
33.35804
33.01648
33.50698
34.02934
34.28561
34.34482
34.15502
33.8609
33.35581
32.92557
33.38195
33.94739
34.16706
34.2287
34.04787
33.75256
33.29982
32.84291
33.27397
33.83956
34.04163
34.10754
33.9331
33.64054
33.22079
32.76499
33.17683
33.715
33.91031
33.97978
33.82233
33.51901
33.13222
32.68939
33.08799
33.58127
33.7806
33.83391
33.70748
33.38028
33.03074
32.62062
33.01686
33.44137
33.64409
33.6809
33.56993
33.18233
32.90883
32.98059
33.30341
33.51299
33.55117
33.43408
33.05475
32.71428
32.88046
33.14998
33.38676
33.42502
33.30221
32.94571
32.58149
32.75858
32.98474
33.26736
33.30769
33.16558
32.89096
32.47695
32.63792
32.87043
33.14489
33.19327
32.97651
32.78747
32.41152
32.43894
32.79315
32.99802
33.06503
32.84622
32.67302
32.33671
32.64807
32.8068
32.85015
32.73263
32.53956
32.583
32.70351
32.73028
32.65862
32.35899
32.37348
32.49031
32.27778
33.62838
34.49326
35.14577
35.79805
36.0666
36.07756
35.90448
35.42594
34.86461
34.14399
33.25932
33.60275
34.44511
35.0842
35.68674
35.92642
35.93557
35.78925
35.35325
34.81379
34.12377
33.23915
33.55072
34.3709
34.97327
35.51088
35.72095
35.72999
35.60033
35.22454
34.7267
34.0819
33.20247
33.48334
34.27434
34.84868
35.34936
35.50839
35.52038
35.44167
35.08083
34.62752
34.00544
33.14917
33.40729
34.17001
34.7245
35.12963
35.35723
35.39166
35.29979
34.9397
34.51882
33.91074
33.08253
33.32636
34.06161
34.60434
34.96984
35.19347
35.2242
35.14289
34.79866
34.40392
33.80408
33.00581
33.243
33.94215
34.47676
34.82308
35.05001
35.05634
34.95773
34.65864
34.26245
33.67121
32.91473
33.1583
33.81322
34.351
34.68763
34.8774
34.89973
34.79814
34.52699
34.11605
33.46016
32.78924
33.10185
33.69586
34.22978
34.55903
34.73448
34.75229
34.66935
34.40437
33.97042
33.32447
32.69043
33.00432
33.59516
34.10963
34.43184
34.62307
34.64361
34.54946
34.29033
33.84107
33.19331
32.62479
32.83693
33.48112
33.97511
34.30565
34.51023
34.53673
34.42741
34.1707
33.71682
33.08059
32.70118
33.31697
33.833
34.18942
34.38914
34.42276
34.30226
34.05103
33.58532
32.98258
32.5613
33.12515
33.68629
34.06712
34.25656
34.29484
34.17428
33.90808
33.45894
32.91379
32.47888
32.97848
33.554
33.92534
34.12325
34.15847
34.04482
33.75638
33.33624
32.81555
32.84373
33.41976
33.773
33.97986
34.01055
33.89712
33.60524
33.16636
32.61466
32.80957
33.24813
33.58337
33.78882
33.81883
33.70541
33.44221
32.96454
32.46759
32.41151
32.85848
33.2949
33.4618
33.48486
33.38924
33.1279
32.74972
32.60122
32.86152
33.11491
33.15222
33.03285
32.72309
32.29377
32.18104
32.55145
32.65647
32.69157
32.68008
32.44296
32.31151
32.34961
32.20463
33.18057
34.10154
35.00366
35.90553
36.32082
35.61816
34.48608
33.56639
33.16395
34.0324
34.95456
35.79554
36.12603
35.5386
34.44447
33.55786
33.11976
33.91365
34.86274
35.61555
35.89701
35.41399
34.36569
33.55437
33.80748
34.75253
35.43765
35.70888
35.25818
34.27121
33.42982
33.70354
34.63971
35.31769
35.57041
35.12294
34.1735
33.31472
33.59951
34.52551
35.16739
35.48838
35.35204
34.96659
34.07488
33.20639
33.49508
34.40656
35.05104
35.3645
35.20478
34.77323
33.97149
33.10612
33.39452
34.29099
34.93374
35.26182
35.08049
34.60465
33.86883
33.01163
33.29334
34.17581
34.82235
35.1694
34.97702
34.47639
33.76494
32.91471
33.19038
34.04384
34.70128
35.00213
35.13547
34.86221
34.35623
33.64921
32.81401
33.09244
33.89277
34.57837
34.89281
35.04315
34.77054
34.22954
33.50295
32.70931
33.02535
33.75589
34.3846
34.80808
35.03018
34.93334
34.67334
34.10431
33.34426
32.61789
32.87271
33.62703
34.2467
34.69741
34.89687
34.97004
34.8196
34.55274
33.98249
33.20571
32.74075
33.49698
34.12205
34.61071
34.81526
34.94464
34.85791
34.72727
34.39257
33.849
33.074
32.60045
33.3422
33.98976
34.50537
34.74309
34.83218
34.82824
34.80478
34.63693
34.23434
33.69633
32.94899
32.50262
33.14966
33.82158
34.2835
34.56878
34.70163
34.68715
34.66844
34.48821
34.05687
33.5153
32.90057
32.84631
33.48416
33.95135
34.35398
34.49631
34.49741
34.45656
34.15529
33.75806
33.14573
32.50821
32.49528
33.07776
33.59866
33.95123
34.11574
34.13455
34.05012
33.81165
33.40023
32.81136
32.72004
33.21439
33.57531
33.74554
33.76697
33.68548
33.40837
32.96901
32.43196
32.28755
32.76926
33.16451
33.33481
33.37041
33.27051
32.93432
32.62557
32.29428
32.66684
32.84769
32.95973
32.78063
32.57415
32.21792
32.4604
32.51857
32.34811
34.20257
35.53363
36.34369
35.89215
34.84978
33.56869
34.12659
35.4474
36.14918
35.78099
34.79033
33.54248
34.01042
35.297
35.92018
35.6006
34.68649
33.49998
33.93677
35.13221
35.70356
35.41816
34.57466
33.42787
33.84977
34.98054
35.57682
35.28627
34.45498
33.3403
33.74892
34.7859
35.40292
35.13366
34.32526
33.25238
33.64617
34.61843
35.28558
35.01221
34.2009
33.16364
33.54098
34.48903
35.18711
34.89912
34.0781
33.0712
33.426
34.37047
35.08934
34.79554
33.94509
32.96996
33.31453
34.25876
34.93896
35.13677
34.69077
33.82232
32.87176
33.21057
34.14496
34.80969
35.0218
34.57696
33.69966
32.78439
33.11053
34.01673
34.72708
34.96611
34.45819
33.54689
32.69221
32.95231
33.89052
34.61209
34.85744
34.27335
33.39098
32.83051
33.76196
34.51592
34.90843
34.73491
34.13901
33.2697
32.6967
33.60772
34.40149
34.84562
34.63346
34.00684
33.13016
32.58763
33.37049
34.18009
34.66363
34.85996
34.49235
33.82606
33.01231
33.10041
33.87356
34.45433
34.79183
34.60336
34.22869
33.50775
32.71134
32.84878
33.53439
34.17752
34.48989
34.78855
34.65041
34.3569
33.84805
33.12967
32.38721
32.41309
33.11885
33.75691
34.21695
34.4561
34.60135
34.56728
34.5622
34.37535
33.99023
33.47845
32.78643
32.7287
33.3445
33.80181
34.11874
34.33622
34.34943
34.27904
33.97221
33.60537
33.03513
32.36461
32.31057
32.89384
33.41683
33.71147
33.89138
33.92187
33.82189
33.56319
33.20822
32.70359
32.41631
32.8977
33.24068
33.41452
33.46573
33.35881
33.11842
32.70659
32.41891
32.69823
32.85369
32.96972
32.81379
32.62949
32.22341
32.18873
32.36053
32.41702
32.32566
34.06408
35.49303
36.15026
34.72609
33.46338
34.04065
35.41683
35.99161
34.69469
33.43827
33.98684
35.30104
35.7931
34.63696
33.39025
33.91241
35.16457
35.61323
34.55727
33.32414
33.82525
35.05232
35.47748
34.46317
33.24653
33.73134
34.92454
35.33084
34.36171
33.16527
33.62688
34.7991
35.17598
34.25159
33.08283
33.50745
34.67828
35.24928
34.99408
34.1214
32.97856
33.3835
34.45846
35.13932
34.86365
33.96255
32.87672
33.26529
34.30814
35.04417
34.75013
33.81306
32.79416
33.1036
34.17167
34.95568
34.63739
33.63987
32.99252
34.04242
34.89537
34.5407
33.47569
32.88862
33.93739
34.79123
34.44155
33.37745
32.78429
33.83589
34.64207
34.8764
34.33926
33.27631
32.66971
33.67809
34.54054
34.80576
34.14796
33.15066
32.52115
33.42335
34.38624
34.69066
33.96426
33.02844
33.17248
34.15598
34.7128
34.43629
33.69692
32.73898
32.77315
33.75521
34.41188
34.67062
34.15528
33.27103
32.4647
33.3181
34.13013
34.56214
34.71508
34.37281
33.74319
32.94803
32.95084
33.69223
34.27521
34.64707
34.45361
34.06702
33.37753
32.56075
32.4994
33.20053
33.86546
34.29568
34.51565
34.63765
34.63577
34.60301
34.41709
34.14593
33.60147
32.91968
32.79617
33.40337
33.87661
34.19464
34.33301
34.34272
34.2958
34.01873
33.6672
33.10888
32.4164
32.29626
32.87608
33.36901
33.69349
33.85064
33.87172
33.80339
33.53716
33.08415
32.65961
32.32274
32.83855
33.17111
33.33754
33.36011
33.2735
32.97914
32.65276
32.25805
32.63251
32.74952
32.77401
32.6733
32.44459
32.19643
32.28219
33.68311
35.39832
36.04993
34.50622
33.65999
35.33353
35.91306
34.47446
33.61546
35.2135
35.72287
34.40977
33.55469
35.07798
35.54766
34.32191
33.48428
34.94668
35.41411
34.21613
33.40791
34.8095
35.25556
34.08338
33.31323
34.56695
35.08806
33.86268
33.23642
34.4098
35.2381
34.91951
33.74945
33.13901
34.27865
35.14546
34.81087
33.63882
33.03737
34.15641
35.04884
34.70122
33.55282
32.94337
34.06394
34.94747
34.59513
33.47778
32.84259
33.97189
34.88795
34.51002
33.38088
32.74624
33.86733
34.78955
34.41259
33.27093
33.70316
34.63185
34.90587
34.29594
33.09589
33.46012
34.52541
34.8241
34.08452
32.95038
33.34186
34.36593
34.70673
33.90678
32.86275
33.10102
34.13112
34.76149
34.46522
33.65031
32.54983
32.75523
33.75866
34.57038
34.22489
33.27372
32.38424
33.35431
34.25569
34.56182
33.84508
32.92814
32.99597
33.865
34.4492
34.67589
34.22027
33.46508
32.53794
32.55905
33.44785
34.15261
34.62877
34.38947
33.83648
33.02849
32.98341
33.7319
34.29062
34.63879
34.45424
34.07318
33.41266
32.56414
32.45473
33.19802
33.84084
34.26965
34.47469
34.61159
34.61112
34.58728
34.36109
34.09679
33.58227
32.90447
32.70429
33.35435
33.79882
34.11315
34.27325
34.27908
34.23598
33.92771
33.59887
33.02675
32.33287
32.75073
33.23246
33.5235
33.72606
33.76346
33.64302
33.38724
32.98225
32.40081
32.63848
32.90317
33.12584
33.16567
32.99167
32.76069
32.316
32.26535
32.4654
32.53043
32.39671
33.47957
34.75815
36.2583
35.56713
34.07806
33.45303
34.72131
36.09416
35.48878
34.05543
33.40602
34.64913
35.88252
35.35741
34.00387
33.34819
34.56207
35.67506
35.21066
33.935
33.27971
34.47569
35.54728
35.09975
33.85523
33.19205
34.38781
35.40015
34.97657
33.75694
33.12099
34.29848
35.28911
34.87686
33.64942
34.2011
35.17626
34.7736
33.50024
34.09288
35.09242
34.67899
33.39104
33.94912
34.99075
34.56505
33.2826
33.72805
34.88567
34.4424
33.16311
33.60804
34.75736
34.276
33.06712
33.48834
34.60184
34.94298
34.10312
32.96082
33.39046
34.50625
34.85698
33.98372
32.84178
33.28765
34.41832
34.80528
33.88654
32.72305
33.11358
34.26814
34.65577
33.73643
32.84599
33.93404
34.73243
34.40124
33.38231
32.50019
33.64569
34.55138
34.16761
33.09451
33.25033
34.22731
34.57352
33.78933
32.73642
32.82458
33.8149
34.56443
34.25055
33.34991
32.41835
33.35361
34.24397
34.54581
33.94235
32.97374
32.94608
33.8228
34.49054
34.18694
33.43352
32.49999
32.41396
33.29817
34.07157
34.5787
34.31537
33.72475
32.93167
32.85267
33.58459
34.14209
34.52131
34.59597
34.3302
33.86011
33.1968
32.39537
32.28436
33.02121
33.61763
34.10689
34.31982
34.45243
34.49378
34.40322
34.19959
33.84986
33.36034
32.68796
32.38301
33.02115
33.51367
33.8145
33.9652
33.9848
33.9169
33.68708
33.31206
32.75402
32.34786
32.8749
33.19578
33.34721
33.38512
33.29006
33.01204
32.64866
32.21628
32.53048
32.68054
32.7108
32.64463
32.3977
33.36616
34.45073
36.05098
35.36327
33.71472
33.34423
34.41689
35.91877
35.29854
33.69402
33.30039
34.34032
35.73047
35.17687
33.6461
33.23616
34.21087
35.52662
35.01443
33.58264
33.14936
34.06998
35.38277
34.88054
33.49135
33.06288
33.94672
35.22034
34.64767
33.39647
32.98139
33.84784
35.09461
34.48416
33.28876
33.76182
34.97604
34.37086
33.16023
33.66292
34.86292
34.26543
33.04785
33.55449
34.71697
35.10375
34.15924
32.94214
33.44856
34.60637
34.98836
34.0559
32.84269
33.34672
34.52098
34.92203
33.93769
32.75071
33.18301
34.41549
34.83159
33.73308
33.0638
34.30839
34.7455
33.60666
32.924
34.14027
34.64213
33.47207
32.79621
33.94127
34.84665
34.45264
33.37118
33.5975
34.63476
34.21535
33.03734
33.3081
34.35499
34.71167
33.88188
32.74513
32.95372
34.08961
34.49219
33.50911
32.59383
33.70839
34.51969
34.16382
33.18877
33.27308
34.17533
34.52898
33.77288
32.75372
32.78562
33.75993
34.51107
34.17112
33.30276
32.32318
33.28396
34.1351
34.45322
33.74463
32.87359
32.84279
33.68218
34.29187
34.55648
34.0449
33.24272
32.31431
33.10944
33.81382
34.32822
34.56707
34.12334
33.51017
32.64627
32.48726
33.2133
33.8421
34.27682
34.51248
34.61004
34.60877
34.57651
34.41015
34.10457
33.58314
32.92128
32.66417
33.29731
33.73069
33.98793
34.20306
34.21667
34.14202
33.87829
33.49399
32.97791
32.28306
32.64564
33.0125
33.38833
33.56958
33.58489
33.50162
33.25734
32.84757
32.28437
32.30064
32.65009
32.79818
32.81219
32.75695
32.5578
33.40929
34.23641
35.43673
36.20166
34.67703
33.76757
33.39115
34.21198
35.37207
36.04613
34.64372
33.75031
33.35395
34.16149
35.25549
35.84074
34.57707
33.70939
33.30002
34.09568
35.12312
35.64352
34.49571
33.65165
33.23307
34.02167
35.00419
35.50699
34.40972
33.58198
33.15608
33.93506
34.89276
35.38798
34.30926
33.50203
33.07193
33.83329
34.77684
35.28381
34.18787
33.41622
32.98055
33.69472
34.65064
35.14308
34.06775
33.32362
32.88366
33.53323
34.49369
35.00606
33.93825
33.20934
33.40968
34.34289
34.89788
33.81255
33.08404
33.29457
34.21861
34.78435
33.69179
32.97007
33.18764
34.09375
34.69008
33.56964
32.85945
33.08125
33.98258
34.94252
34.55108
33.38554
32.7493
32.95965
33.88188
34.85445
34.45811
33.26942
32.64814
32.80877
33.7506
34.77956
34.35394
33.13033
32.67034
33.55591
34.63529
34.18412
33.01945
33.29562
34.36092
34.75553
33.84057
32.69597
32.96097
34.14739
34.58928
33.49762
32.59269
33.7801
34.64465
34.2623
33.21198
33.39477
34.40615
33.97674
32.81541
32.96008
34.05503
34.46075
33.50284
32.53566
33.65065
34.47845
34.10512
33.12815
33.15362
34.09699
34.4554
33.65333
32.6192
32.63048
33.62308
34.31639
34.59578
34.01755
33.136
33.09732
33.93861
34.52944
34.21498
33.52488
32.58572
32.46014
33.29667
34.03586
34.54445
34.28156
33.68961
32.94755
32.76795
33.459
34.05889
34.40487
34.61618
34.53939
34.25784
33.76259
33.11341
32.28971
32.8418
33.42669
33.84654
34.17693
34.30976
34.28985
34.27646
34.07752
33.69374
33.11178
32.44369
32.70474
33.11016
33.48818
33.62099
33.62298
33.58622
33.36231
32.96368
32.39292
32.47495
32.74009
32.85635
32.87844
32.81159
32.60913
32.25272
33.46358
34.29307
35.22371
36.23571
35.78695
34.75483
33.79847
33.13089
33.45154
34.2721
35.17111
36.07831
35.69378
34.72193
33.79131
33.12941
33.41073
34.22495
35.07635
35.87482
35.54611
34.65628
33.75946
33.34705
34.15744
34.96754
35.68022
35.38928
34.57221
33.70279
33.27283
34.07643
34.86062
35.56259
35.27832
34.47971
33.62921
33.19114
33.98638
34.75094
35.43055
35.15164
34.38094
33.54554
33.10414
33.88966
34.63691
35.32142
35.04123
34.27649
33.45523
33.01327
33.78553
34.51183
35.20389
34.92627
34.16165
33.36007
32.9201
33.66479
34.38028
35.10193
34.80817
34.02735
33.26304
32.8244
33.47295
34.25886
34.98253
34.68762
33.88819
33.16446
33.36357
34.12609
34.85481
34.45745
33.76848
33.02722
33.24914
34.0099
34.77725
34.33102
33.65551
32.91485
33.1408
33.89719
34.67815
34.21899
33.54435
32.8046
33.03622
33.76462
34.55919
34.95858
34.10329
33.4001
32.69748
32.8952
33.64235
34.47418
34.88338
33.9894
33.22771
32.57928
32.78365
33.48154
34.30633
34.75575
33.80405
33.11228
33.14621
34.01101
34.51453
33.50473
32.80347
32.79818
33.7145
34.67481
34.26815
33.14146
33.37445
34.43847
34.00522
32.75817
32.97567
34.12257
34.54236
33.55206
32.5736
33.74715
34.6212
34.21741
33.20642
33.31879
34.28642
34.61699
33.90255
32.72473
32.80328
33.9316
34.61407
34.28087
33.35416
33.35162
34.25746
34.57588
33.91544
32.83065
32.82156
33.88287
34.53642
34.1883
33.3229
33.25578
34.06157
34.57856
34.33107
33.66634
32.7415
32.64416
33.56937
34.1845
34.58572
34.39995
33.93945
33.11142
32.92141
33.61661
34.14767
34.49943
34.61021
34.33783
33.93962
33.26004
32.43112
32.9418
33.48885
33.92532
34.23362
34.33166
34.31263
34.29089
34.1195
33.74663
33.212
32.52539
32.77914
33.30277
33.56164
33.69581
33.72673
33.63661
33.42371
33.01524
32.4499
32.53794
32.77071
32.90121
32.93061
32.84367
32.63077
32.25839
33.53483
34.41179
35.28784
36.27587
35.81875
34.83147
33.99946
33.17169
33.52704
34.36418
35.22864
36.10881
35.72317
34.78584
33.96374
33.15465
33.48268
34.28912
35.12534
35.89865
35.57088
34.70661
33.83586
33.13464
33.39726
34.20474
35.00896
35.69477
35.40868
34.61232
33.75966
33.30009
34.11007
34.89523
35.57641
35.29284
34.51135
33.66365
33.20827
34.01337
34.78263
35.44034
35.16286
34.4085
33.57002
33.11823
33.91573
34.66969
35.30741
35.04181
34.30477
33.47677
33.02735
33.81594
34.55255
35.14385
35.34095
34.90396
34.19836
33.38203
32.93522
33.71163
34.42656
35.00889
35.25336
34.73721
34.08474
33.28532
32.84298
33.59027
34.28049
34.91433
35.16933
34.59763
33.94628
33.18864
32.74232
33.40356
34.16161
34.82783
35.0692
34.49429
33.81
33.08522
33.2944
34.05556
34.73297
34.99455
34.39208
33.69873
32.95479
33.17387
33.94494
34.62254
34.88225
34.28091
33.58354
32.83098
33.05829
33.81737
34.4549
34.79289
34.14614
33.45538
32.716
32.93414
33.66745
34.33959
34.9276
34.70247
34.01479
33.25411
32.58637
32.81798
33.51547
34.19437
34.79988
34.55788
33.86493
33.14337
32.48391
33.17695
33.90907
34.60453
34.30202
33.56908
32.84033
32.85775
33.56428
34.33266
34.76366
33.88405
33.18086
32.48078
32.47817
33.16412
34.07346
34.53019
33.52533
32.85013
32.79836
33.69412
34.66725
34.23573
33.1286
32.45052
33.32932
34.37311
33.92571
32.70843
32.87427
34.01068
34.44085
33.4255
33.48782
34.48371
34.05471
32.93824
33.07188
34.05938
34.45166
33.6309
32.44526
32.50075
33.62009
34.40355
34.04019
33.12906
33.07384
33.97302
34.58189
34.28895
33.5774
32.49622
32.37899
33.35852
34.18713
34.52327
33.8825
32.98646
32.71937
33.62326
34.23043
34.51562
33.97246
33.22044
32.9677
33.64753
34.17113
34.57697
34.35343
33.95698
33.30065
32.49368
32.9627
33.51101
34.04887
34.27795
34.36431
34.41647
34.3421
34.17022
33.77707
33.2362
32.54288
32.78051
33.29731
33.56295
33.69404
33.71303
33.63806
33.42377
33.01448
32.45244
32.37096
32.72676
32.85714
32.87326
32.81428
32.58421
33.46364
34.41186
35.3331
36.29633
35.85078
34.87102
33.93667
33.45163
34.36423
35.26938
36.12691
35.74928
34.82104
33.84479
33.41093
34.28918
35.15812
35.9199
35.60286
34.7304
33.7973
33.34737
34.20517
35.03433
35.72088
35.4404
34.62917
33.7282
33.2732
34.1108
34.91417
35.58434
35.31088
34.52235
33.64843
33.19154
34.01403
34.79836
35.44709
35.17773
34.41685
33.56093
33.10453
33.91614
34.68735
35.32259
35.05999
34.31346
33.46923
33.01362
33.81632
34.57715
35.20359
34.93975
34.20989
33.37397
32.92036
33.71203
34.46498
35.07302
35.25198
34.81879
34.10269
33.2763
32.82456
33.59059
34.32995
34.9337
35.15664
34.6574
33.97233
33.18099
33.40371
34.1859
34.83844
35.08268
34.52006
33.8229
33.05475
33.29454
34.07491
34.7594
35.01205
34.41611
33.71092
32.93702
33.17398
33.96367
34.65066
34.90687
34.30757
33.59394
32.82067
33.05838
33.84006
34.54121
34.97652
34.76894
34.19009
33.46476
32.70971
32.93426
33.68493
34.36554
34.92355
34.6802
34.04051
33.26154
32.5836
32.818
33.54451
34.20789
34.80427
34.52134
33.89043
33.15204
32.4841
33.18872
33.917
34.50374
34.77859
34.22357
33.58321
32.86056
32.87221
33.57668
34.20472
34.78395
34.52609
33.90609
33.19194
32.49124
32.48757
33.18944
33.89663
34.5565
34.27048
33.57101
32.87176
32.84314
33.51776
34.28253
34.71815
33.83878
33.15854
32.46453
32.42785
33.11303
34.0132
34.44409
33.4745
32.77757
32.68568
33.55056
34.52659
34.09063
33.04394
33.14176
34.12517
34.57482
33.61124
32.49154
32.59632
33.72441
34.58405
34.20384
33.1978
33.27022
34.17436
34.56594
33.82758
32.62263
32.643
33.701
34.51862
34.15081
33.25396
33.17253
34.02847
34.41601
33.64805
32.60504
32.45777
33.45509
34.2095
34.5343
33.91639
33.06776
32.86216
33.65164
34.22913
34.50548
33.98846
33.2658
32.33054
32.98288
33.65738
34.17687
34.58136
34.36509
33.97485
33.31077
32.51772
32.96085
33.50012
33.90986
34.24112
34.32272
34.31639
34.30222
34.11931
33.75102
33.22924
32.54407
32.73423
33.12188
33.47884
33.63757
33.6409
33.59273
33.36899
32.98631
32.4186
32.31627
32.65566
32.82476
32.83985
32.75963
32.56009
33.40932
34.2931
35.28789
36.29637
35.83586
34.78683
33.78902
33.39119
34.27213
35.22867
36.12698
35.73485
34.75008
33.77419
33.35402
34.22494
35.12531
35.92007
35.58242
34.68113
33.73615
33.30011
34.15735
35.00891
35.72115
35.42521
34.59374
33.67915
33.23317
34.07631
34.89521
35.58464
35.30368
34.49791
33.60791
33.15614
33.98632
34.78267
35.44737
35.17247
34.39703
33.52654
33.07198
33.88961
34.66975
35.32283
35.05368
34.29175
33.43832
32.98063
33.78553
34.55256
35.20376
34.92623
34.17974
33.34515
32.88379
33.66483
34.4266
35.07312
34.8091
34.05425
33.25091
33.47301
34.28054
34.93376
35.15215
34.62353
33.90748
33.12681
33.36361
34.16164
34.83853
35.07
34.5068
33.78958
33.00564
33.24917
34.05559
34.7595
35.00486
34.40441
33.67967
32.8905
33.14083
33.94496
34.65079
34.90414
34.29565
33.56822
32.78518
33.03626
33.8173
34.54151
34.97568
34.77166
34.17335
33.44296
32.67794
32.89528
33.66741
34.36624
34.90939
34.68528
34.02928
33.2443
32.78374
33.51561
34.20845
34.77549
34.52117
33.87807
33.13244
33.17706
33.91717
34.52309
34.76639
34.22858
33.57592
32.82939
32.85788
33.57686
34.22195
34.73914
34.51497
33.91082
33.1878
32.47333
32.4783
33.1899
33.93376
34.49601
34.76114
34.27503
33.58426
32.86477
32.84332
33.54998
34.15741
34.74137
34.48123
33.86967
33.16823
32.45796
32.42796
33.13193
33.82296
34.50068
34.19765
33.49384
32.80259
32.72456
33.43643
34.16715
34.63263
33.75589
33.07283
32.94008
33.7531
34.63501
34.23244
33.23948
32.54687
33.32903
34.30943
33.88678
32.68397
32.74584
33.88644
34.3358
33.36229
33.35501
34.30697
33.88104
32.74335
32.74443
33.83248
34.55627
34.19218
33.33316
33.24004
34.09931
34.47052
33.68098
32.7046
32.51573
33.57685
34.23286
34.52201
33.95487
33.08512
32.79769
33.65852
34.25074
34.539
33.99616
33.26854
32.97174
33.65625
34.1718
34.49242
34.60133
34.341
33.97395
33.30679
32.49062
32.92106
33.47052
33.87053
34.1929
34.33389
34.30703
34.28603
34.08849
33.70187
33.17421
32.51382
32.67016
33.06082
33.41822
33.60913
33.63022
33.50994
33.2897
32.89045
32.36478
32.54673
32.73194
32.75445
32.66038
32.37908
33.36615
34.2364
35.22372
36.27589
35.79902
34.71171
33.74314
33.34423
34.21197
35.17114
36.10883
35.70475
34.67846
33.72436
33.30038
34.16146
35.0764
35.8987
35.55584
34.61291
33.68072
33.23611
34.09562
34.96765
35.69482
35.39721
34.53115
33.62128
33.1493
34.0216
34.86071
35.57645
35.28314
34.4432
33.55206
33.06285
33.93503
34.75097
35.44039
35.14947
34.34791
33.46699
32.98137
33.83329
34.63691
35.30744
35.01216
34.24396
33.37262
33.69472
34.51183
35.14386
34.85032
34.12364
33.27053
33.53322
34.38028
35.00889
35.2381
34.6983
33.99104
33.14858
33.40967
34.25886
34.91434
35.15738
34.57926
33.86657
33.03581
33.29457
34.12609
34.82784
35.08056
34.47568
33.73961
32.92328
33.18764
34.0099
34.73298
34.99436
34.37362
33.62475
32.80679
33.08125
33.89718
34.62254
34.86408
34.26631
33.50621
32.70235
32.95966
33.76462
34.45489
34.97659
34.75021
34.14144
33.31915
32.80878
33.64235
34.33953
34.92363
34.67684
34.02589
33.18767
32.67034
33.48159
34.1943
34.80434
34.53262
33.85228
33.07483
33.14623
33.90907
34.50378
34.7515
34.21439
33.54021
32.76308
32.79823
33.56427
34.20479
34.73925
34.49183
33.9117
33.1619
33.16415
33.89665
34.49612
34.77344
34.19266
33.55713
32.80677
32.79848
33.51782
34.15758
34.68266
34.4475
33.86241
33.14849
33.11315
33.8229
34.40302
34.66497
34.11338
33.48649
32.7594
32.68583
33.43663
34.03729
34.63909
34.35085
33.76249
33.06794
32.94011
33.59039
34.27245
34.6749
33.89061
33.24959
32.5348
33.12393
33.95783
34.38128
33.47702
32.75211
32.54416
33.47946
34.38201
33.95994
32.9457
32.90846
33.99868
34.41095
33.4478
33.43286
34.35779
33.98225
32.84818
32.80454
33.87326
34.55204
34.20443
33.41387
33.22862
34.08504
34.49802
33.68693
32.7003
32.44267
33.48815
34.2248
34.53685
33.94523
33.11249
32.73431
33.63595
34.24194
34.61985
34.48636
33.99253
33.21891
32.88655
33.62108
34.11903
34.4436
34.65046
34.55854
34.28064
33.86093
33.2518
32.3813
32.75976
33.30733
33.78692
34.02973
34.27078
34.27658
34.20929
33.91897
33.59336
33.07905
32.36639
32.44288
32.91978
33.19162
33.43681
33.44289
33.38478
33.0809
32.73147
32.35382
32.53117
32.55385
32.49171
33.47987
34.45064
35.4366
36.23567
35.83627
34.90586
33.94803
33.45339
34.41665
35.37191
36.07827
35.73446
34.86216
33.92358
33.40641
34.34004
35.25531
35.87477
35.58115
34.77325
33.86923
33.34853
34.21077
35.12296
35.68019
35.42399
34.65474
33.79695
33.2799
34.07003
35.00409
35.56257
35.31756
34.53466
33.66399
33.19213
33.94674
34.89269
35.43053
35.18363
34.42206
33.55453
33.12102
33.84784
34.7768
35.3214
35.07184
34.30988
33.44253
33.76181
34.65062
35.20387
34.94889
34.21032
33.35188
33.66292
34.49368
35.10192
34.81512
34.09793
33.24864
33.55449
34.34288
34.98253
35.1682
34.71307
33.97411
33.14241
33.44856
34.21861
34.85481
35.05561
34.60704
33.84717
33.03411
33.34673
34.09375
34.77725
34.99391
34.49537
33.67941
32.9436
33.18303
33.98258
34.67815
34.91635
34.39903
33.57696
32.85845
33.06387
33.88186
34.55916
34.82564
34.29866
33.46193
32.92417
33.75048
34.47414
34.9276
34.73679
34.11661
33.33519
32.79642
33.55593
34.30628
34.79987
34.57979
33.93395
33.21138
33.29568
34.01102
34.60453
34.82358
34.34166
33.66766
32.89309
32.96116
33.71441
34.3326
34.78397
34.58312
34.08931
33.35879
32.59301
33.37458
34.07345
34.55651
34.76902
34.32086
33.71312
32.97742
32.97608
33.69396
34.28247
34.74141
34.5292
34.04823
33.36135
32.60192
32.57432
33.32959
34.01321
34.50081
34.70774
34.25338
33.66172
32.94087
32.87494
33.55077
34.1672
34.63906
34.42634
33.94692
33.26797
33.14207
33.75305
34.27237
34.5499
34.05127
33.44899
32.73089
32.59638
33.32894
33.95768
34.50818
34.19275
33.57693
32.9572
32.74579
33.47951
34.1571
34.59135
33.85754
33.15404
32.90954
33.75684
34.57557
34.15053
33.30391
33.248
34.13
34.55804
33.72296
32.59798
33.68318
34.48646
34.07745
33.10371
32.99692
33.96095
34.39356
33.64528
33.40243
34.2024
34.52304
33.86197
32.86909
32.59724
33.668
34.2778
34.56251
33.95297
33.28606
32.77918
33.68636
34.28586
34.52439
33.99135
33.33561
32.8974
33.55397
34.10004
34.43168
34.64948
34.53427
34.32126
33.89158
33.33914
32.43197
32.71065
33.39865
33.86376
34.12424
34.20901
34.21559
34.21235
34.00661
33.56718
33.11918
32.47701
32.97911
33.26141
33.39093
33.45416
33.36334
33.15603
32.80693
32.47697
32.73223
32.66374
32.66695
33.68303
34.75809
36.05115
35.45273
34.10523
33.30658
33.65991
34.72124
35.919
35.38451
34.08477
33.2821
33.61538
34.64907
35.73067
35.26394
34.03493
33.23924
33.55463
34.56203
35.52669
35.12532
33.96905
33.18154
33.48424
34.47567
35.38278
35.61337
35.02271
33.89634
33.11502
33.40789
34.3878
35.22033
35.46582
34.90252
33.82039
33.04796
33.31322
34.29847
35.0946
35.34481
34.78593
33.75166
32.99021
33.23641
34.2011
34.97603
35.23038
34.6664
33.67986
33.139
34.09288
34.86292
35.12407
34.54605
33.58798
33.03736
33.94912
34.71697
35.02539
34.37032
33.48493
32.94336
33.72805
34.60637
34.92928
34.19394
33.37086
32.84259
33.60804
34.52098
34.84445
34.08088
33.21186
32.74623
33.48834
34.41549
34.94253
34.71323
33.97727
33.09216
33.39045
34.30838
34.85448
34.60694
33.86536
32.96883
33.28764
34.14026
34.77964
34.48562
33.71043
32.85059
33.11358
33.94126
34.63531
34.86881
34.33005
33.5131
32.74764
32.846
33.59751
34.36094
34.66058
34.08447
33.25019
32.50019
33.3081
34.14739
34.67493
34.44051
33.73087
32.89359
32.95374
33.78012
34.43855
34.67852
34.13418
33.38629
32.56782
32.59386
33.39482
34.12264
34.66754
34.43403
33.77534
32.97706
32.96018
33.74733
34.37343
34.62096
34.08627
33.37258
32.57809
32.53581
33.31906
34.01142
34.52823
34.25758
33.68318
32.91323
32.80346
33.48848
34.14251
34.63278
34.41764
33.91254
33.19865
32.44255
33.07157
33.72466
34.30777
34.54711
34.03531
33.38223
32.66458
32.50058
33.27004
33.8861
34.38178
34.635
34.1106
33.54232
32.87208
32.64288
33.35487
33.99856
34.57551
34.268
33.68246
32.99174
32.74437
33.43282
34.12995
34.57154
33.84461
33.14846
32.80451
33.68315
34.49235
34.08203
33.19519
32.44355
32.99691
34.02414
34.48951
33.62753
33.55834
34.34308
33.92309
32.83512
32.67076
33.71738
34.53984
34.13616
33.29435
33.11837
33.94685
34.57909
34.30177
33.61664
32.46957
33.24835
33.97833
34.57825
34.33192
33.64884
32.7338
32.30666
33.30114
33.96357
34.42499
34.61051
34.19604
33.67158
32.80175
32.35588
33.15908
33.71099
34.13206
34.40626
34.47607
34.49139
34.46534
34.2526
33.96204
33.4252
32.82616
32.93516
33.3226
33.67595
33.80694
33.83312
33.77352
33.54369
33.16062
32.57997
32.50594
32.91243
33.1824
33.39778
33.43647
33.34109
33.07728
32.73419
32.49538
32.78057
32.96747
32.94632
32.86948
32.65923
32.35856
32.60097
32.53098
32.52353
34.06407
35.39831
36.25829
35.85209
34.7322
33.56274
34.04064
35.33352
36.09415
35.74478
34.69587
33.53239
33.98683
35.21348
35.88252
35.58967
34.62413
33.47212
33.9124
35.07797
35.67505
35.41055
34.52883
33.39848
33.82524
34.94667
35.54727
35.27952
34.42019
33.31825
33.73134
34.80949
35.40014
35.0904
34.30663
33.2345
33.62688
34.56695
35.2891
34.95982
34.16043
33.14641
33.50744
34.4098
35.17626
34.84972
34.00123
33.05094
33.3835
34.27864
35.09242
34.74403
33.84064
32.94926
33.26528
34.15641
34.99075
34.63733
33.63193
32.85925
33.1036
34.06394
34.88567
34.55098
33.52977
32.76321
32.99252
33.97189
34.75735
34.98553
34.44595
33.43921
32.88862
33.86733
34.60184
34.88038
34.32883
33.34685
32.78429
33.70316
34.50625
34.80847
34.11181
33.23408
32.66971
33.46012
34.41832
34.73317
33.96697
33.09329
32.52116
33.34186
34.26815
34.84666
34.60207
33.83285
32.89882
33.10102
33.93406
34.63477
34.31882
33.47274
32.67416
32.75523
33.6457
34.35501
34.65979
34.07469
33.19348
32.38425
33.25034
34.08963
34.64468
34.40999
33.67833
32.79011
32.82459
33.70841
34.40619
34.64177
34.06808
33.28323
32.42466
32.41837
33.27311
34.05507
34.62126
34.36611
33.69081
32.81952
32.78564
33.65068
34.28646
34.58345
34.01085
33.23466
32.38432
32.32318
33.15362