/*--------------------------------*- C++ -*----------------------------------*\
| =========                 |                                                 |
| \\      /  F ield         | OpenFOAM: The Open Source CFD Toolbox           |
|  \\    /   O peration     | Version:  5.x                                   |
|   \\  /    A nd           | Web:      www.OpenFOAM.org                      |
|    \\/     M anipulation  |                                                 |
\*---------------------------------------------------------------------------*/
FoamFile
{
    version     2.0;
    format      ascii;
    class       volScalarField;
    location    "30/muscle";
    object      T;
}
// * * * * * * * * * * * * * * * * * * * * * * * * * * * * * * * * * * * * * //

dimensions      [0 0 0 1 0 0 0];

internalField   nonuniform List<scalar> 
45560
(
37.00257
37.0026
37.00268
37.01146
37.0116
37.01139
37.01899
37.01945
37.02605
37.00253
37.0026
37.00266
37.00268
37.00267
37.00259
37.00274
37.01147
37.01198
37.01235
37.01245
37.01238
37.01206
37.01929
37.02033
37.02087
37.02112
37.02115
37.02049
37.02693
37.02776
37.02843
37.02874
37.02883
37.02886
37.03369
37.03451
37.03502
37.03536
37.03602
37.03654
37.04172
37.0424
37.04291
37.04336
37.0427
37.05043
37.05124
37.05091
37.00246
37.00275
37.00277
37.00283
37.00286
37.00286
37.00285
37.00275
37.00273
37.01127
37.0124
37.01283
37.01315
37.01329
37.0133
37.01311
37.01267
37.01184
37.01934
37.02079
37.02173
37.02228
37.02255
37.02257
37.0222
37.02181
37.01976
37.02656
37.02828
37.02957
37.03028
37.03068
37.03075
37.03041
37.02915
37.03286
37.03488
37.03646
37.03728
37.03778
37.03797
37.03771
37.03589
37.03913
37.04145
37.04361
37.04477
37.04548
37.04558
37.04491
37.04378
37.04886
37.05142
37.05326
37.05429
37.05412
37.05327
37.05626
37.05834
37.05958
37.06047
37.05922
37.00253
37.00269
37.00286
37.00292
37.00297
37.003
37.00301
37.003
37.00295
37.00278
37.01132
37.01248
37.01315
37.01354
37.01383
37.01398
37.01402
37.01391
37.01365
37.01328
37.0193
37.02106
37.02211
37.02289
37.02343
37.02372
37.02376
37.02353
37.02305
37.02174
37.02636
37.02822
37.02988
37.0311
37.03187
37.0323
37.03237
37.03202
37.03111
37.02978
37.03274
37.0346
37.03676
37.03831
37.03929
37.03985
37.03997
37.03956
37.03835
37.03687
37.04167
37.04395
37.04586
37.04714
37.04789
37.04801
37.04749
37.04639
37.04464
37.04952
37.05206
37.05462
37.05641
37.05743
37.05758
37.0569
37.05572
37.05417
37.05807
37.06071
37.06272
37.06396
37.06451
37.06375
37.06358
37.06547
37.0669
37.06834
37.0696
37.06996
37.00253
37.00263
37.00285
37.00296
37.00303
37.00309
37.00312
37.00313
37.00312
37.00308
37.00297
37.00274
37.01106
37.01214
37.01315
37.01373
37.01412
37.0144
37.01457
37.01462
37.01455
37.01432
37.01379
37.01268
37.01805
37.02054
37.02207
37.02314
37.0239
37.02444
37.02475
37.02482
37.02464
37.02417
37.02323
37.02174
37.02784
37.02979
37.03136
37.03253
37.03332
37.03377
37.03387
37.03358
37.03282
37.03159
37.02978
37.03444
37.03663
37.0386
37.04012
37.04115
37.04175
37.04189
37.04152
37.04057
37.0392
37.0372
37.04084
37.04388
37.04626
37.04813
37.04946
37.05024
37.05043
37.05001
37.04895
37.04722
37.04539
37.04828
37.05218
37.05526
37.05773
37.05953
37.0606
37.06089
37.06039
37.05915
37.05663
37.05775
37.06168
37.06465
37.06684
37.06821
37.06873
37.06823
37.0668
37.0634
37.06101
37.06559
37.06935
37.07202
37.07374
37.0745
37.07374
37.0717
37.07165
37.07527
37.07721
37.07799
37.07713
37.00264
37.00257
37.00279
37.00295
37.00306
37.00313
37.00319
37.00322
37.00324
37.00323
37.00319
37.00311
37.00296
37.00274
37.0111
37.01215
37.01292
37.01367
37.01422
37.01463
37.01492
37.0151
37.01516
37.0151
37.01489
37.01446
37.01381
37.0126
37.01825
37.01984
37.02178
37.02304
37.02406
37.02482
37.02537
37.0257
37.0258
37.02566
37.02524
37.02449
37.02346
37.02165
37.02712
37.02939
37.03123
37.03272
37.03385
37.03466
37.03514
37.03528
37.03505
37.03442
37.03334
37.03173
37.03009
37.03385
37.03619
37.03846
37.04036
37.04184
37.0429
37.04353
37.04372
37.04344
37.04263
37.04133
37.0395
37.03868
37.04074
37.04319
37.04608
37.04846
37.05034
37.0517
37.05252
37.05279
37.05245
37.05149
37.04989
37.04772
37.05111
37.05509
37.05824
37.06072
37.06256
37.0637
37.0641
37.06372
37.06255
37.06039
37.05735
37.05712
37.06137
37.06535
37.06843
37.07076
37.07224
37.07283
37.07245
37.07108
37.06862
37.0669
37.06528
37.0701
37.07384
37.07676
37.07866
37.07941
37.07898
37.07726
37.07481
37.06806
37.0731
37.07709
37.08089
37.08324
37.08403
37.08372
37.08272
37.07966
37.08408
37.08687
37.08784
37.08797
37.00268
37.00256
37.00273
37.00291
37.00304
37.00314
37.00322
37.00328
37.00332
37.00334
37.00333
37.00329
37.00323
37.00312
37.00292
37.00285
37.01123
37.01172
37.01263
37.01351
37.01416
37.01468
37.01509
37.01539
37.01559
37.01566
37.01561
37.01543
37.01509
37.01456
37.01362
37.01298
37.01871
37.01988
37.02122
37.02276
37.02394
37.02492
37.02568
37.02624
37.02659
37.02672
37.02661
37.02625
37.02561
37.02466
37.02334
37.02202
37.02549
37.02701
37.02869
37.03081
37.03255
37.03398
37.0351
37.03592
37.03643
37.03662
37.03645
37.03591
37.03497
37.03358
37.03184
37.03059
37.03351
37.03542
37.03793
37.04015
37.042
37.04347
37.04455
37.04523
37.04548
37.04527
37.04457
37.04338
37.04172
37.03975
37.03873
37.04031
37.04235
37.04537
37.04818
37.05055
37.05244
37.05383
37.05471
37.05505
37.05481
37.05395
37.05246
37.05044
37.04814
37.04684
37.0499
37.05405
37.05786
37.06104
37.06357
37.06546
37.06668
37.06719
37.06692
37.06584
37.06386
37.06099
37.05751
37.05432
37.06019
37.06481
37.06883
37.07204
37.07448
37.07608
37.07677
37.07651
37.07521
37.07287
37.06945
37.06369
37.06919
37.07426
37.07822
37.08128
37.08332
37.08422
37.08395
37.08235
37.07948
37.07525
37.0716
37.07759
37.08239
37.08615
37.08871
37.08987
37.08964
37.08757
37.0839
37.07899
37.08477
37.08925
37.09234
37.09427
37.09341
37.08979
37.08643
37.08982
37.09304
37.09761
37.00268
37.00257
37.00267
37.00283
37.003
37.00313
37.00323
37.00331
37.00337
37.00341
37.00343
37.00343
37.00339
37.00333
37.00323
37.00307
37.00296
37.00289
37.01123
37.01175
37.01236
37.01311
37.01396
37.01459
37.01511
37.01553
37.01584
37.01605
37.01614
37.01611
37.01594
37.01563
37.01513
37.01434
37.01376
37.01321
37.01871
37.01987
37.02098
37.02214
37.0236
37.02476
37.02571
37.02648
37.02706
37.02743
37.02759
37.02752
37.0272
37.02662
37.02573
37.02452
37.02356
37.02243
37.02549
37.02734
37.0286
37.03003
37.03206
37.03375
37.03515
37.03627
37.03711
37.03766
37.03789
37.03778
37.03732
37.03646
37.03518
37.03362
37.03265
37.03104
37.03352
37.0351
37.03695
37.03951
37.0417
37.04354
37.04501
37.04612
37.04684
37.04715
37.04702
37.04641
37.04531
37.0437
37.04175
37.04045
37.03963
37.04085
37.04217
37.0442
37.04736
37.05015
37.05252
37.05443
37.05586
37.05681
37.05722
37.05707
37.05631
37.05491
37.05292
37.05072
37.04965
37.04925
37.04963
37.05241
37.0567
37.06048
37.06368
37.06627
37.06824
37.06955
37.07015
37.06999
37.06902
37.06717
37.06445
37.06143
37.05997
37.05419
37.05795
37.06336
37.06812
37.07218
37.07548
37.07802
37.07975
37.08057
37.08044
37.07928
37.07704
37.07362
37.06977
37.06138
37.06756
37.07333
37.07834
37.08244
37.08562
37.08781
37.08891
37.08882
37.08746
37.08488
37.08089
37.06998
37.07641
37.08245
37.08745
37.09132
37.09405
37.09551
37.09547
37.09388
37.09103
37.07786
37.08466
37.09089
37.09531
37.09862
37.10077
37.10066
37.09849
37.09742
37.08715
37.09375
37.09729
37.10153
37.10518
37.10588
37.00264
37.00256
37.00267
37.00278
37.00291
37.00308
37.0032
37.00331
37.00339
37.00346
37.0035
37.00352
37.00352
37.00349
37.00343
37.00334
37.0032
37.0031
37.003
37.00289
37.01109
37.01172
37.01236
37.01292
37.01355
37.01435
37.01499
37.01552
37.01595
37.01627
37.01649
37.0166
37.01658
37.01643
37.01613
37.01565
37.01499
37.01451
37.01395
37.01324
37.01825
37.01988
37.02099
37.02191
37.02294
37.02434
37.0255
37.02646
37.02724
37.02783
37.02823
37.02842
37.02839
37.02811
37.02756
37.02671
37.02562
37.02486
37.02394
37.02254
37.02701
37.0286
37.0298
37.03118
37.03317
37.03484
37.03624
37.03738
37.03825
37.03883
37.03911
37.03905
37.03864
37.03785
37.03664
37.03516
37.03421
37.03302
37.03139
37.03352
37.0351
37.03662
37.03838
37.04094
37.04313
37.04497
37.04647
37.04761
37.04839
37.04875
37.04869
37.04815
37.04712
37.04556
37.0437
37.0425
37.04115
37.04017
37.04035
37.04217
37.04386
37.04596
37.04918
37.05198
37.05437
37.05631
37.0578
37.05881
37.05931
37.05924
37.05856
37.05725
37.05528
37.05306
37.05176
37.05035
37.04962
37.05197
37.0548
37.05914
37.06295
37.06618
37.06884
37.07089
37.07229
37.073
37.07295
37.07209
37.07034
37.06769
37.06467
37.06278
37.0603
37.05419
37.05729
37.06091
37.0664
37.07123
37.07536
37.07877
37.08142
37.08327
37.08424
37.08425
37.08322
37.08109
37.07776
37.07394
37.07152
37.06062
37.06473
37.07119
37.07715
37.08224
37.08647
37.0898
37.09216
37.09345
37.09354
37.09238
37.0899
37.08587
37.08094
37.07375
37.08095
37.08709
37.09227
37.09634
37.09929
37.10097
37.10117
37.09989
37.09714
37.0927
37.07395
37.08256
37.0901
37.09644
37.10126
37.10487
37.10717
37.10742
37.106
37.10306
37.08276
37.09167
37.09934
37.1047
37.10905
37.1124
37.11237
37.1109
37.10135
37.10682
37.11186
37.11736
37.00253
37.00257
37.00273
37.00283
37.00291
37.00302
37.00317
37.0033
37.00341
37.00349
37.00356
37.00361
37.00364
37.00364
37.00361
37.00356
37.00347
37.00335
37.00328
37.00321
37.0031
37.00286
37.01106
37.01215
37.01263
37.01311
37.01355
37.01407
37.01484
37.01548
37.01602
37.01646
37.0168
37.01704
37.01717
37.01717
37.01704
37.01676
37.01632
37.01576
37.01541
37.015
37.01456
37.01332
37.01806
37.01985
37.02122
37.02214
37.02294
37.02387
37.02524
37.02639
37.02737
37.02817
37.0288
37.02923
37.02946
37.02947
37.02923
37.02872
37.02792
37.02694
37.02631
37.02555
37.02454
37.02311
37.02712
37.02869
37.03003
37.03118
37.03251
37.03447
37.03615
37.03757
37.03874
37.03965
37.04029
37.04062
37.04063
37.04028
37.03955
37.0384
37.037
37.0361
37.035
37.03362
37.03229
37.03386
37.03543
37.03695
37.03838
37.0401
37.04266
37.04485
37.04672
37.04827
37.04947
37.05031
37.05076
37.05078
37.05032
37.04937
37.04787
37.04607
37.04494
37.04366
37.04226
37.04134
37.04075
37.04235
37.0442
37.04596
37.04811
37.05138
37.05422
37.05664
37.05865
37.06022
37.06132
37.06192
37.06196
37.06139
37.06016
37.05825
37.056
37.05462
37.05308
37.05149
37.04989
37.05241
37.05479
37.05769
37.06211
37.06597
37.06928
37.07203
37.0742
37.07574
37.07659
37.07669
37.07596
37.07434
37.07175
37.0687
37.06682
37.0647
37.06254
37.05432
37.05795
37.06091
37.06456
37.07014
37.07506
37.07931
37.08286
37.08568
37.08772
37.08888
37.08907
37.08822
37.08622
37.08299
37.07914
37.07676
37.07387
37.06138
37.06473
37.06902
37.07576
37.08182
37.08708
37.09152
37.09508
37.09768
37.09921
37.09955
37.0986
37.09627
37.09239
37.08771
37.0852
37.07203
37.07925
37.08652
37.09288
37.09832
37.10271
37.10597
37.10796
37.10847
37.10748
37.10491
37.10051
37.09614
37.08129
37.08934
37.09694
37.10355
37.10885
37.11288
37.11546
37.11617
37.11521
37.11273
37.10803
37.09094
37.09949
37.10749
37.11375
37.11869
37.12203
37.12293
37.12213
37.12084
37.10131
37.11094
37.11771
37.12392
37.12794
37.1301
37.1296
37.11951
37.12997
37.00253
37.00263
37.00279
37.00291
37.003
37.00308
37.00317
37.00332
37.00345
37.00356
37.00366
37.00373
37.00379
37.00382
37.00383
37.00381
37.00376
37.00368
37.00358
37.00352
37.00346
37.00337
37.00322
37.00301
37.00318
37.01132
37.01214
37.01292
37.01351
37.01396
37.01435
37.01484
37.01559
37.01624
37.0168
37.01728
37.01766
37.01793
37.0181
37.01814
37.01804
37.0178
37.01738
37.01689
37.01659
37.01623
37.01577
37.01506
37.01421
37.01268
37.0193
37.02055
37.02178
37.02276
37.0236
37.02435
37.02524
37.02659
37.02778
37.0288
37.02965
37.03034
37.03085
37.03115
37.03122
37.03104
37.0306
37.02985
37.02894
37.02837
37.02769
37.02686
37.02581
37.02442
37.02636
37.02784
37.02939
37.03081
37.03206
37.03317
37.03447
37.03645
37.03816
37.03965
37.0409
37.0419
37.04263
37.04307
37.04318
37.04293
37.04228
37.0412
37.03987
37.03902
37.03799
37.03675
37.03529
37.0337
37.03274
37.03445
37.0362
37.03793
37.03951
37.04094
37.04266
37.04524
37.0475
37.04946
37.05111
37.05243
37.05341
37.054
37.05415
37.05382
37.05298
37.05156
37.04982
37.0487
37.0474
37.04589
37.0442
37.04218
37.04084
37.04319
37.04537
37.04736
37.04918
37.05138
37.05472
37.05766
37.0602
37.06235
37.06408
37.06537
37.06614
37.06636
37.06596
37.06487
37.06304
37.06081
37.05939
37.05776
37.05585
37.05367
37.05155
37.04828
37.05112
37.05405
37.0567
37.05914
37.06211
37.06665
37.07065
37.07414
37.0771
37.07952
37.08132
37.08243
37.08277
37.08227
37.08083
37.07837
37.07534
37.07343
37.07125
37.06875
37.066
37.05712
37.06019
37.06336
37.0664
37.07014
37.07591
37.08103
37.08553
37.08939
37.09256
37.09494
37.09646
37.09698
37.09641
37.09464
37.09156
37.08775
37.08536
37.0827
37.07983
37.07757
37.06369
37.06756
37.07119
37.07576
37.08282
37.08915
37.09477
37.09963
37.10364
37.10671
37.1087
37.10947
37.10888
37.1068
37.1031
37.09847
37.0955
37.09213
37.08773
37.06998
37.07375
37.07925
37.08765
37.0953
37.10217
37.10816
37.11315
37.11702
37.11959
37.12068
37.12012
37.11774
37.11342
37.10804
37.1047
37.1014
37.07395
37.08129
37.0907
37.09966
37.10799
37.11527
37.12139
37.12621
37.12949
37.13099
37.13052
37.12785
37.12294
37.11777
37.09196
37.10234
37.11247
37.12121
37.12864
37.13461
37.1387
37.14068
37.14038
37.13714
37.13068
37.10371
37.11582
37.1261
37.13513
37.14254
37.14745
37.14992
37.14983
37.14588
37.11886
37.12928
37.14044
37.14932
37.15484
37.1578
37.16022
37.13075
37.14311
37.15233
37.15892
37.16214
37.00246
37.00269
37.00285
37.00295
37.00304
37.00313
37.0032
37.0033
37.00345
37.00359
37.0037
37.00381
37.00389
37.00395
37.00399
37.00401
37.004
37.00395
37.00388
37.00378
37.00373
37.00366
37.00358
37.00349
37.00338
37.00315
37.00317
37.01127
37.01248
37.01315
37.01367
37.01416
37.01459
37.01499
37.01548
37.01624
37.01692
37.01751
37.01802
37.01844
37.01876
37.01897
37.01905
37.01898
37.01876
37.01838
37.0179
37.0176
37.01725
37.01684
37.01637
37.01584
37.01477
37.01359
37.01934
37.02106
37.02207
37.02305
37.02394
37.02476
37.0255
37.02639
37.02778
37.029
37.03008
37.03101
37.03177
37.03235
37.03272
37.03286
37.03275
37.03235
37.03165
37.03077
37.03021
37.02955
37.02878
37.02788
37.02691
37.02597
37.02345
37.02656
37.02822
37.02979
37.03123
37.03255
37.03375
37.03484
37.03615
37.03816
37.03995
37.04152
37.04286
37.04397
37.04482
37.04537
37.04558
37.04542
37.04484
37.04382
37.04253
37.0417
37.04073
37.03958
37.03825
37.03675
37.03498
37.03286
37.0346
37.03664
37.03846
37.04015
37.0417
37.04313
37.04485
37.0475
37.04985
37.05192
37.0537
37.05517
37.0563
37.05703
37.05732
37.05712
37.05637
37.05502
37.05333
37.05224
37.05097
37.0495
37.04783
37.0459
37.04379
37.03913
37.04167
37.04388
37.04608
37.04818
37.05015
37.05198
37.05422
37.05766
37.06071
37.0634
37.06573
37.06766
37.06914
37.07011
37.07051
37.07027
37.06931
37.06757
37.06538
37.06398
37.06238
37.06055
37.05852
37.05641
37.05407
37.04952
37.05218
37.05509
37.05786
37.06048
37.06295
37.06597
37.07065
37.07483
37.07855
37.08177
37.08447
37.08656
37.08795
37.08855
37.08826
37.08699
37.08466
37.08171
37.07983
37.07768
37.07527
37.07259
37.06974
37.06697
37.05775
37.06137
37.06481
37.06812
37.07123
37.07506
37.08103
37.08642
37.09123
37.09546
37.09901
37.10179
37.10369
37.10456
37.10428
37.10272
37.09981
37.09609
37.09372
37.091
37.08795
37.08463
37.08122
37.06101
37.06528
37.06919
37.07333
37.07715
37.08182
37.08915
37.09584
37.10189
37.10723
37.11176
37.11536
37.11786
37.11909
37.11887
37.11707
37.11357
37.10909
37.10623
37.10285
37.09887
37.09485
37.06806
37.0716
37.07641
37.08095
37.08652
37.0953
37.10342
37.11085
37.11747
37.12315
37.12772
37.13097
37.13267
37.13258
37.13054
37.12645
37.12115
37.11779
37.11374
37.10946
37.07786
37.08256
37.08934
37.09966
37.10941
37.11844
37.12653
37.13354
37.13927
37.14344
37.14575
37.1459
37.14363
37.13891
37.13272
37.1287
37.12302
37.08276
37.09094
37.10234
37.11405
37.12491
37.13468
37.14325
37.15037
37.15569
37.1588
37.15929
37.15675
37.1511
37.14486
37.1037
37.11769
37.13046
37.14215
37.1525
37.16128
37.16806
37.17227
37.17323
37.17021
37.16178
37.12052
37.13413
37.14836
37.16041
37.17082
37.1794
37.18494
37.18601
37.18378
37.13459
37.1524
37.16516
37.17652
37.18677
37.19343
37.18968
37.15871
37.17017
37.18265
37.19499
37.20279
37.00253
37.00275
37.00286
37.00296
37.00306
37.00314
37.00323
37.00331
37.00341
37.00356
37.0037
37.00383
37.00394
37.00403
37.00411
37.00416
37.00418
37.00417
37.00413
37.00406
37.00397
37.00391
37.00384
37.00377
37.00369
37.00359
37.00349
37.00331
37.01147
37.0124
37.01315
37.01373
37.01422
37.01468
37.01511
37.01552
37.01602
37.0168
37.01751
37.01815
37.0187
37.01917
37.01953
37.01978
37.0199
37.01986
37.01967
37.01929
37.01882
37.01853
37.01818
37.01779
37.01736
37.01685
37.01617
37.01515
37.01929
37.02079
37.02211
37.02314
37.02406
37.02492
37.02571
37.02646
37.02737
37.0288
37.03008
37.03123
37.03223
37.03307
37.03373
37.03419
37.0344
37.03434
37.03399
37.03331
37.03245
37.0319
37.03126
37.03053
37.0297
37.02877
37.02758
37.02582
37.02693
37.02828
37.02988
37.03136
37.03272
37.03398
37.03515
37.03624
37.03757
37.03965
37.04152
37.04318
37.04464
37.04587
37.04684
37.0475
37.04782
37.04774
37.04723
37.04625
37.045
37.04419
37.04324
37.04215
37.04092
37.03954
37.03799
37.03628
37.03369
37.03488
37.03676
37.0386
37.04036
37.042
37.04354
37.04497
37.04672
37.04946
37.05192
37.05412
37.05605
37.05768
37.05897
37.05986
37.06029
37.0602
37.05954
37.05825
37.05659
37.05552
37.05428
37.05286
37.05127
37.04951
37.0477
37.04596
37.04145
37.04395
37.04626
37.04846
37.05055
37.05252
37.05437
37.05664
37.0602
37.0634
37.06628
37.06881
37.07095
37.07264
37.07382
37.07441
37.07431
37.07347
37.07181
37.06967
37.06828
37.06669
37.06489
37.06287
37.06069
37.05831
37.05624
37.04886
37.05206
37.05526
37.05824
37.06104
37.06368
37.06618
37.06928
37.07414
37.07855
37.08253
37.08605
37.08905
37.09145
37.09314
37.09401
37.09394
37.09283
37.0906
37.08769
37.08582
37.08368
37.08125
37.07852
37.07539
37.07175
37.05807
37.06168
37.06535
37.06883
37.07218
37.07536
37.07931
37.08553
37.09123
37.09642
37.10105
37.10504
37.10825
37.11055
37.11179
37.1118
37.11046
37.10767
37.10399
37.10162
37.09889
37.09583
37.09246
37.08868
37.08517
37.06559
37.0701
37.07426
37.07834
37.08224
37.08708
37.09477
37.10189
37.10842
37.11431
37.11943
37.12361
37.12666
37.12838
37.12855
37.12702
37.12367
37.11921
37.11632
37.11299
37.10924
37.10515
37.10061
37.0731
37.07759
37.08245
37.08709
37.09288
37.10217
37.11085
37.11892
37.12625
37.1327
37.13805
37.14204
37.14438
37.14482
37.14315
37.13925
37.13394
37.13052
37.12661
37.1223
37.11751
37.07899
37.08466
37.0901
37.09694
37.10799
37.11844
37.12825
37.13728
37.14531
37.15207
37.15722
37.16038
37.16121
37.15949
37.15507
37.14888
37.14474
37.13963
37.13553
37.08715
37.09167
37.09949
37.11247
37.12491
37.13673
37.14773
37.15764
37.16613
37.17275
37.17697
37.17833
37.17665
37.17172
37.16459
37.16119
37.10131
37.11582
37.13045
37.14461
37.1579
37.17001
37.18061
37.18914
37.19483
37.19675
37.19524
37.1888
37.11885
37.13407
37.15147
37.16691
37.1812
37.19403
37.20479
37.21263
37.21471
37.2127
37.13438
37.15624
37.17241
37.18803
37.20238
37.21472
37.22503
37.22724
37.21849
37.16213
37.17755
37.19465
37.21062
37.22438
37.2395
37.24313
37.18118
37.19994
37.21726
37.2311
37.25496
37.0026
37.00277
37.00292
37.00303
37.00313
37.00322
37.00331
37.00339
37.00349
37.00366
37.00381
37.00394
37.00406
37.00416
37.00424
37.0043
37.00433
37.00433
37.0043
37.00423
37.00413
37.00407
37.00401
37.00393
37.00384
37.00374
37.00361
37.00342
37.00329
37.01198
37.01283
37.01354
37.01412
37.01463
37.01509
37.01553
37.01595
37.01646
37.01728
37.01802
37.0187
37.0193
37.01981
37.02022
37.02052
37.02067
37.02067
37.02049
37.02013
37.01966
37.01936
37.01902
37.01862
37.01818
37.01765
37.01699
37.01613
37.01521
37.02033
37.02173
37.02289
37.0239
37.02482
37.02568
37.02648
37.02724
37.02817
37.02965
37.03101
37.03223
37.03331
37.03424
37.03499
37.03552
37.0358
37.0358
37.03548
37.03483
37.03398
37.03343
37.03279
37.03207
37.03124
37.03031
37.0292
37.02789
37.02597
37.02776
37.02957
37.0311
37.03252
37.03385
37.0351
37.03627
37.03738
37.03874
37.0409
37.04286
37.04464
37.04623
37.04758
37.04868
37.04946
37.04987
37.04988
37.04942
37.04848
37.04723
37.04642
37.04549
37.04442
37.04322
37.04189
37.0404
37.03873
37.03658
37.03451
37.03646
37.03831
37.04012
37.04184
37.04347
37.04501
37.04647
37.04827
37.05111
37.0537
37.05605
37.05815
37.05995
37.0614
37.06245
37.06301
37.06303
37.06245
37.06121
37.05956
37.0585
37.05727
37.05586
37.05429
37.05258
37.05075
37.04883
37.04753
37.04172
37.04361
37.04586
37.04813
37.05034
37.05244
37.05443
37.05631
37.05865
37.06235
37.06573
37.06881
37.07155
37.07392
37.07584
37.07723
37.078
37.07805
37.07731
37.07571
37.07357
37.07219
37.07059
37.06878
37.06676
37.06457
37.0623
37.06023
37.05142
37.05462
37.05773
37.06072
37.06357
37.06627
37.06884
37.07203
37.0771
37.08177
37.08605
37.08989
37.09322
37.09595
37.09795
37.09908
37.09922
37.09825
37.09609
37.09319
37.0913
37.08912
37.08664
37.08385
37.08077
37.07751
37.07461
37.05626
37.06071
37.06465
37.06843
37.07204
37.07548
37.07877
37.08286
37.08939
37.09546
37.10105
37.10612
37.11057
37.11424
37.11697
37.11857
37.11887
37.11772
37.11501
37.11132
37.10891
37.10611
37.10293
37.09936
37.0954
37.09084
37.06547
37.06935
37.07384
37.07822
37.08244
37.08647
37.09152
37.09963
37.10722
37.11431
37.12079
37.12654
37.13135
37.13498
37.13719
37.13774
37.13646
37.13322
37.12871
37.12575
37.12231
37.11839
37.11408
37.10974
37.10596
37.07165
37.07709
37.08239
37.08745
37.09227
37.09832
37.10816
37.11747
37.12625
37.13439
37.14169
37.14788
37.15264
37.15564
37.15658
37.15524
37.15146
37.1461
37.14258
37.13846
37.13362
37.12782
37.1221
37.07966
37.08477
37.09089
37.09644
37.10355
37.11527
37.12653
37.13728
37.14736
37.15653
37.16442
37.1706
37.17464
37.17614
37.17481
37.1705
37.16431
37.16031
37.15566
37.14989
37.08643
37.09375
37.09934
37.10749
37.1212
37.13468
37.14772
37.16013
37.17157
37.18158
37.18957
37.19494
37.19717
37.19594
37.19115
37.18429
37.18049
37.17697
37.10135
37.11094
37.1261
37.14214
37.15789
37.17303
37.18728
37.19994
37.21022
37.21734
37.22057
37.21939
37.21431
37.20883
37.12929
37.14836
37.1669
37.18476
37.20212
37.21776
37.23054
37.23959
37.24433
37.24232
37.23631
37.13076
37.15243
37.1724
37.19191
37.21171
37.22952
37.24396
37.25409
37.26075
37.25638
37.15877
37.17754
37.1987
37.22187
37.24225
37.2585
37.26847
37.27846
37.18117
37.20418
37.23282
37.25624
37.27513
37.2803
37.24388
37.27168
37.29584
37.00257
37.00266
37.00283
37.00297
37.00309
37.00319
37.00328
37.00337
37.00346
37.00356
37.00373
37.00389
37.00403
37.00416
37.00427
37.00437
37.00443
37.00447
37.00447
37.00444
37.00437
37.00428
37.00422
37.00415
37.00407
37.00398
37.00387
37.00374
37.00357
37.00338
37.01146
37.01235
37.01315
37.01383
37.0144
37.01492
37.01539
37.01584
37.01627
37.0168
37.01766
37.01844
37.01917
37.01981
37.02037
37.02083
37.02117
37.02135
37.02138
37.02122
37.02086
37.02039
37.02009
37.01974
37.01933
37.01888
37.01835
37.01771
37.01691
37.01588
37.01899
37.02087
37.02228
37.02343
37.02444
37.02537
37.02624
37.02706
37.02783
37.0288
37.03034
37.03177
37.03307
37.03424
37.03526
37.03609
37.0367
37.03705
37.03709
37.03681
37.03617
37.03531
37.03475
37.03411
37.03338
37.03255
37.0316
37.0305
37.02916
37.0271
37.02843
37.03028
37.03187
37.03332
37.03466
37.03592
37.03711
37.03825
37.03965
37.0419
37.04397
37.04587
37.04758
37.04907
37.05029
37.05118
37.05169
37.05177
37.05136
37.05043
37.04918
37.04837
37.04743
37.04635
37.04514
37.04379
37.04225
37.04044
37.0382
37.03502
37.03728
37.03929
37.04115
37.0429
37.04455
37.04612
37.04761
37.04947
37.05243
37.05517
37.05768
37.05995
37.06192
37.06355
37.06474
37.06544
37.06555
37.06503
37.06381
37.06216
37.06109
37.05984
37.05843
37.05684
37.05508
37.05313
37.05088
37.04864
37.0424
37.04477
37.04714
37.04946
37.0517
37.05383
37.05586
37.0578
37.06022
37.06408
37.06766
37.07095
37.07392
37.07652
37.07867
37.08026
37.0812
37.08138
37.08073
37.07916
37.07701
37.07561
37.07399
37.07215
37.0701
37.06787
37.06553
37.06321
37.06076
37.05043
37.05326
37.05641
37.05953
37.06256
37.06546
37.06824
37.07088
37.0742
37.07952
37.08447
37.08905
37.09322
37.0969
37.09996
37.10226
37.10364
37.10397
37.10313
37.10101
37.09807
37.09615
37.09392
37.09137
37.08852
37.08541
37.08216
37.07905
37.05834
37.06272
37.06684
37.07076
37.07448
37.07802
37.08142
37.08568
37.09256
37.09901
37.10503
37.11057
37.11549
37.11963
37.12278
37.12474
37.1253
37.12432
37.12166
37.11791
37.11544
37.11257
37.10928
37.10552
37.10123
37.09632
37.09133
37.0669
37.07202
37.07676
37.08128
37.08562
37.0898
37.09508
37.10364
37.11176
37.11942
37.12654
37.13294
37.13838
37.1426
37.1453
37.14622
37.14515
37.14196
37.13736
37.13433
37.13081
37.12679
37.12226
37.11704
37.10991
37.07527
37.08088
37.08615
37.09132
37.09634
37.10271
37.11315
37.12315
37.1327
37.14169
37.14987
37.15692
37.16248
37.16615
37.16758
37.16651
37.16277
37.15726
37.15362
37.14941
37.14465
37.13933
37.13285
37.08408
37.08925
37.09531
37.10126
37.10885
37.12139
37.13354
37.14531
37.15653
37.16689
37.17596
37.18322
37.18815
37.19029
37.1893
37.18497
37.17837
37.17396
37.16903
37.16432
37.16109
37.08982
37.09728
37.1047
37.11374
37.12864
37.14324
37.15764
37.17157
37.18463
37.19624
37.20569
37.21226
37.21533
37.21448
37.20946
37.20135
37.1956
37.18848
37.10682
37.11771
37.13513
37.1525
37.17001
37.18728
37.20372
37.21855
37.2308
37.23951
37.24379
37.24311
37.23729
37.22679
37.21981
37.11951
37.14044
37.16041
37.18119
37.20212
37.22229
37.24072
37.25614
37.26729
37.27308
37.2722
37.26751
37.14311
37.16517
37.18802
37.2117
37.2345
37.25552
37.27318
37.28612
37.2934
37.29139
37.17017
37.19465
37.22187
37.24748
37.27144
37.29162
37.30674
37.31716
37.31205
37.19994
37.23282
37.26157
37.28882
37.31167
37.32957
37.34294
37.24388
37.27917
37.30909
37.3337
37.35536
37.0026
37.00268
37.00286
37.003
37.00312
37.00322
37.00332
37.00341
37.0035
37.00361
37.00379
37.00395
37.00411
37.00424
37.00437
37.00447
37.00454
37.00458
37.00459
37.00456
37.00449
37.0044
37.00434
37.00426
37.00418
37.00409
37.00398
37.00385
37.00367
37.00348
37.0116
37.01245
37.01329
37.01398
37.01457
37.0151
37.01559
37.01605
37.01649
37.01704
37.01793
37.01876
37.01953
37.02022
37.02083
37.02133
37.02171
37.02193
37.02197
37.02183
37.02147
37.02099
37.02068
37.02032
37.01991
37.01944
37.0189
37.01824
37.0174
37.01634
37.01945
37.02112
37.02255
37.02372
37.02475
37.0257
37.02659
37.02743
37.02823
37.02923
37.03084
37.03235
37.03373
37.03499
37.03609
37.037
37.03768
37.03809
37.03817
37.03791
37.03727
37.0364
37.03583
37.03517
37.03442
37.03357
37.03261
37.0315
37.03011
37.02819
37.02605
37.02874
37.03068
37.0323
37.03377
37.03514
37.03643
37.03766
37.03883
37.04029
37.04263
37.04482
37.04684
37.04868
37.05029
37.05162
37.05262
37.05322
37.05336
37.05298
37.05205
37.05078
37.04995
37.04899
37.04789
37.04665
37.04527
37.04371
37.04186
37.03899
37.03536
37.03778
37.03985
37.04175
37.04353
37.04523
37.04684
37.04839
37.05031
37.05341
37.0563
37.05897
37.0614
37.06355
37.06533
37.06667
37.06748
37.06768
37.0672
37.06598
37.0643
37.0632
37.06193
37.06048
37.05885
37.05706
37.05507
37.05272
37.05017
37.04291
37.04548
37.04789
37.05024
37.05252
37.05471
37.05681
37.05881
37.06132
37.06536
37.06914
37.07264
37.07584
37.07867
37.08103
37.08282
37.08391
37.08421
37.08361
37.08204
37.07986
37.07842
37.07676
37.07487
37.07276
37.0705
37.06816
37.06587
37.0628
37.05124
37.05429
37.05743
37.0606
37.0637
37.06668
37.06955
37.07229
37.07574
37.08132
37.08656
37.09145
37.09595
37.09996
37.10333
37.10592
37.10754
37.10804
37.10728
37.10517
37.10217
37.10019
37.09789
37.09526
37.09232
37.08913
37.08586
37.08279
37.05957
37.06396
37.06821
37.07224
37.07608
37.07975
37.08327
37.08772
37.09494
37.10179
37.10825
37.11424
37.11963
37.12421
37.12777
37.13007
37.13087
37.13001
37.12736
37.12352
37.12097
37.11801
37.11461
37.11072
37.10626
37.10122
37.09671
37.06834
37.07374
37.07866
37.08332
37.08781
37.09216
37.09768
37.10671
37.11536
37.12361
37.13135
37.13838
37.14445
37.14923
37.15241
37.15367
37.15278
37.14958
37.14487
37.14173
37.1381
37.13398
37.12937
37.12417
37.1169
37.07721
37.08324
37.0887
37.09405
37.09929
37.10597
37.11702
37.12772
37.13805
37.14787
37.15692
37.16483
37.17118
37.1755
37.1774
37.17658
37.17286
37.16718
37.16341
37.15906
37.1542
37.14867
37.14176
37.08687
37.09233
37.09862
37.10487
37.11288
37.12621
37.13927
37.15207
37.16442
37.17596
37.1862
37.19455
37.20039
37.20317
37.20252
37.19825
37.19146
37.18689
37.18171
37.17686
37.17328
37.09304
37.10153
37.10905
37.11869
37.13461
37.15037
37.16612
37.18157
37.19623
37.20945
37.22041
37.22823
37.23216
37.2318
37.22705
37.21893
37.21321
37.20507
37.11185
37.12392
37.14254
37.16128
37.18061
37.19994
37.21855
37.23559
37.24996
37.2604
37.26579
37.26579
37.26128
37.25136
37.24827
37.12997
37.14931
37.17081
37.19403
37.21776
37.24072
37.26209
37.28042
37.29394
37.30092
37.30074
37.30155
37.15232
37.17652
37.20238
37.22952
37.25551
37.28
37.30125
37.31712
37.32553
37.32359
37.32733
37.18264
37.21062
37.24225
37.27144
37.2995
37.32412
37.343
37.35509
37.34965
37.21726
37.25625
37.28882
37.32102
37.34944
37.37206
37.38742
37.27169
37.30909
37.34539
37.3797
37.40489
37.00268
37.00267
37.00286
37.00301
37.00313
37.00324
37.00334
37.00343
37.00352
37.00364
37.00382
37.00399
37.00416
37.0043
37.00443
37.00454
37.00462
37.00467
37.00468
37.00465
37.00458
37.00448
37.00442
37.00435
37.00426
37.00417
37.00406
37.00392
37.00372
37.00348
37.01139
37.01238
37.0133
37.01402
37.01462
37.01516
37.01566
37.01614
37.0166
37.01717
37.0181
37.01897
37.01978
37.02052
37.02117
37.02171
37.02211
37.02236
37.02242
37.02228
37.02192
37.02143
37.02111
37.02074
37.02031
37.01983
37.01928
37.01859
37.01769
37.01632
37.02115
37.02257
37.02376
37.02482
37.0258
37.02672
37.02759
37.02842
37.02946
37.03114
37.03272
37.03419
37.03552
37.0367
37.03768