/*--------------------------------*- C++ -*----------------------------------*\
| =========                 |                                                 |
| \\      /  F ield         | OpenFOAM: The Open Source CFD Toolbox           |
|  \\    /   O peration     | Version:  5.x                                   |
|   \\  /    A nd           | Web:      www.OpenFOAM.org                      |
|    \\/     M anipulation  |                                                 |
\*---------------------------------------------------------------------------*/
FoamFile
{
    version     2.0;
    format      ascii;
    class       surfaceScalarField;
    location    "24/gland";
    object      meshPhi;
}
// * * * * * * * * * * * * * * * * * * * * * * * * * * * * * * * * * * * * * //

dimensions      [0 3 -1 0 0 0 0];

internalField   uniform 0;

boundaryField
{
    thoraic_wall_gland
    {
        type            calculated;
        value           uniform 0;
    }
    gland_to_tumor
    {
        type            calculated;
        value           uniform 0;
    }
    gland_to_muscle
    {
        type            calculated;
        value           uniform 0;
    }
    gland_to_tissue
    {
        type            calculated;
        value           uniform 0;
    }
}


// ************************************************************************* //
