/*--------------------------------*- C++ -*----------------------------------*\
| =========                 |                                                 |
| \\      /  F ield         | OpenFOAM: The Open Source CFD Toolbox           |
|  \\    /   O peration     | Version:  5.x                                   |
|   \\  /    A nd           | Web:      www.OpenFOAM.org                      |
|    \\/     M anipulation  |                                                 |
\*---------------------------------------------------------------------------*/
FoamFile
{
    version     2.0;
    format      ascii;
    class       volScalarField;
    location    "24/gland";
    object      T;
}
// * * * * * * * * * * * * * * * * * * * * * * * * * * * * * * * * * * * * * //

dimensions      [0 0 0 1 0 0 0];

internalField   nonuniform List<scalar> 
202541
(
36.66665
36.7273
36.72956
36.72281
36.14552
36.17961
36.18356
36.17855
35.84872
35.85495
35.83657
35.63351
35.62994
35.6248
35.45832
35.47858
36.76417
36.83855
36.87231
36.88457
36.88692
36.8798
36.85921
36.80514
36.6693
36.18145
36.33773
36.43739
36.47593
36.48569
36.45562
36.40173
36.2806
35.85017
35.97603
36.11942
36.16245
36.17498
36.13989
36.06923
35.95734
35.60772
35.74031
35.87914
35.92044
35.93368
35.90433
35.82696
35.71333
35.4549
35.56878
35.68096
35.72847
35.73725
35.71513
35.6271
35.53215
35.30334
35.42295
35.51203
35.57068
35.5784
35.5504
35.44665
35.36109
35.27928
35.34063
35.42829
35.43731
35.40076
35.31773
35.19271
35.15086
35.2248
35.29811
35.3073
35.25042
35.19719
35.10436
35.05018
35.12136
35.16177
35.16584
35.14258
35.09685
35.00933
35.07369
35.07463
35.05786
35.00279
36.82018
36.87931
36.90686
36.91961
36.92473
36.92595
36.9225
36.91473
36.89673
36.86451
36.71062
36.31863
36.46972
36.55895
36.61287
36.63484
36.64016
36.6251
36.59174
36.52438
36.42492
36.193
35.98928
36.16532
36.27615
36.35124
36.38126
36.38825
36.36892
36.32002
36.23365
36.10786
35.87466
35.7501
35.92704
36.05219
36.13423
36.16755
36.17448
36.15541
36.0984
36.00353
35.86044
35.65817
35.56007
35.73369
35.86545
35.94957
35.98882
35.99513
35.97533
35.91068
35.80972
35.63025
35.47384
35.40835
35.57458
35.70575
35.7908
35.83819
35.84599
35.82052
35.7518
35.63831
35.47028
35.31953
35.25023
35.43842
35.56494
35.65114
35.70397
35.71381
35.68232
35.61514
35.49959
35.33618
35.1405
35.28173
35.43341
35.52982
35.57893
35.58863
35.55737
35.49145
35.37626
35.21908
35.03611
35.16727
35.32127
35.41885
35.46589
35.47335
35.44642
35.37653
35.2599
35.11385
35.0765
35.17388
35.28343
35.33557
35.34351
35.31105
35.24421
35.11921
34.99586
34.97575
35.05083
35.12231
35.12926
35.07753
35.01382
34.8836
34.84735
34.92295
34.92525
34.87764
34.81861
36.69426
36.84636
36.90268
36.92314
36.93521
36.9422
36.94532
36.94598
36.94407
36.93931
36.93008
36.91549
36.88118
36.81206
36.15187
36.35729
36.54699
36.63308
36.68393
36.71544
36.72978
36.73273
36.72408
36.70222
36.662
36.5998
36.46997
36.28685
36.02265
36.25941
36.38375
36.45932
36.50751
36.52962
36.53398
36.52107
36.48689
36.42664
36.33349
36.16002
35.90233
35.78642
36.02885
36.17148
36.26442
36.32331
36.35083
36.35594
36.34048
36.29774
36.22401
36.10995
35.92523
35.65183
35.61026
35.84002
35.98997
36.09451
36.16103
36.19385
36.19971
36.18152
36.13182
36.04804
35.92046
35.73891
35.48315
35.46084
35.67653
35.83547
35.94619
36.01804
36.05603
36.06306
36.0413
35.98652
35.89544
35.76178
35.57773
35.36109
35.32123
35.5293
35.69947
35.81482
35.89068
35.932
35.94006
35.91546
35.8578
35.76197
35.62241
35.40584
35.22435
35.17207
35.4051
35.57421
35.69537
35.77558
35.8177
35.82594
35.80074
35.74104
35.64094
35.4978
35.28535
35.07889
35.28672
35.46068
35.58569
35.66958
35.71256
35.72056
35.69544
35.63311
35.5293
35.37916
35.17959
34.98441
35.15458
35.3273
35.45235
35.54054
35.58536
35.59366
35.56722
35.50215
35.3957
35.2532
35.08407
34.93471
35.09847
35.237
35.33243
35.37971
35.38918
35.35915
35.29127
35.17964
35.03234
34.9163
35.01132
35.11168
35.16679
35.18143
35.14424
35.07278
34.96258
34.83009
34.78991
34.9102
34.92998
34.933
34.91403
34.84807
36.85676
36.90662
36.93219
36.94465
36.95195
36.95639
36.95853
36.95895
36.9577
36.95449
36.94874
36.93951
36.92168
36.88905
36.7654
36.34477
36.5646
36.67089
36.72784
36.76189
36.78286
36.79308
36.79505
36.78911
36.77388
36.74691
36.70397
36.6258
36.48618
36.21562
36.03904
36.28775
36.43871
36.52792
36.58317
36.61754
36.63441
36.63762
36.6279
36.60275
36.55881
36.4896
36.3727
36.18114
35.88806
35.79554
36.06578
36.23829
36.34857
36.42008
36.46487
36.48715
36.49133
36.47858
36.44551
36.3884
36.29989
36.16141
35.94777
35.65105
35.61484
35.88454
36.06557
36.18934
36.27292
36.32591
36.35291
36.35799
36.34247
36.3029
36.23558
36.13345
35.98335
35.76476
35.49108
35.47885
35.72952
35.9142
36.04845
36.1407
36.20002
36.2311
36.23706
36.21895
36.1742
36.09917
35.98734
35.82819
35.61591
35.36814
35.34626
35.58565
35.77954
35.92234
36.02122
36.08547
36.11959
36.12625
36.10612
36.0575
35.97659
35.85732
35.68834
35.47604
35.23523
35.18425
35.45558
35.66014
35.80768
35.91179
35.98011
36.01626
36.02333
36.00198
35.95037
35.86476
35.74024
35.56679
35.31698
35.08271
35.34422
35.55015
35.70227
35.81028
35.88203
35.91981
35.92712
35.90492
35.85071
35.76141
35.63262
35.45692
35.20808
34.99195
35.1957
35.41801
35.57478
35.68589
35.76118
35.8008
35.80846
35.78516
35.72817
35.63545
35.5035
35.32247
35.10262
34.99394
35.20189
35.36828
35.48468
35.56502
35.6072
35.61561
35.59037
35.52959
35.4321
35.29388
35.09547
34.88703
34.97754
35.15114
35.27513
35.36207
35.40815
35.41711
35.3902
35.32378
35.22255
35.05515
34.86658
34.7933
34.92304
35.05636
35.14669
35.18877
35.19418
35.17509
35.10637
34.99038
34.83879
34.82507
34.90442
34.93086
34.93567
34.92521
34.86928
34.77536
36.83327
36.90733
36.93425
36.94931
36.95787
36.96306
36.96623
36.96782
36.96813
36.9672
36.96487
36.96078
36.95419
36.94285
36.9231
36.8831
36.72615
36.34446
36.56494
36.68157
36.74986
36.79025
36.81521
36.83056
36.8383
36.83978
36.83529
36.82395
36.80419
36.77272
36.7202
36.63184
36.47814
36.20837
36.02191
36.29451
36.45932
36.56416
36.6301
36.67213
36.69822
36.71146
36.71399
36.70632
36.68697
36.65351
36.60107
36.51777
36.38649
36.17795
35.88858
35.7944
36.07706
36.2678
36.39606
36.48124
36.53733
36.57253
36.59055
36.594
36.58354
36.55732
36.51237
36.44321
36.33843
36.182
35.95008
35.66232
35.62097
35.89686
36.10102
36.24497
36.34476
36.41221
36.45501
36.4772
36.48147
36.46854
36.43646
36.38207
36.29973
36.17949
36.0078
35.76909
35.4811
35.46032
35.73938
35.953
36.10901
36.22038
36.29687
36.34591
36.37166
36.37667
36.36158
36.32462
36.26257
36.16982
36.03735
35.85476
35.60872
35.31869
35.28767
35.58663
35.81874
35.98637
36.10689
36.19051
36.24461
36.27325
36.27886
36.262
36.22108
36.15291
36.05203
35.90936
35.71342
35.42584
35.16372
35.45755
35.69964
35.87552
36.00258
36.09177
36.14999
36.18091
36.18697
36.16875
36.12464
36.05159
35.94459
35.79498
35.58858
35.30376
35.0844
35.34974
35.59226
35.7731
35.90554
35.9992
36.06081
36.09357
36.09999
36.0807
36.03395
35.95695
35.84497
35.69014
35.48014
35.19914
35.19872
35.45645
35.6464
35.7858
35.8843
35.94959
35.98436
35.99118
35.9707
35.92107
35.83983
35.72211
35.55959
35.34015
35.06325
34.99082
35.23143
35.43967
35.59085
35.69663
35.76729
35.80488
35.81227
35.79013
35.73635
35.64896
35.52218
35.34386
35.10505
34.85019
35.01428
35.23556
35.38968
35.50362
35.58048
35.62057
35.62812
35.60512
35.54681
35.45266
35.31802
35.13412
34.89476
34.80756
35.00194
35.17
35.29734
35.37994
35.41902
35.42551
35.40486
35.34382
35.23958
35.10018
34.91988
34.7529
34.92728
35.06497
35.15249
35.18938
35.19493
35.17749
35.10879
34.9882
34.86177
34.79989
34.89228
34.91171
34.91161
34.90542
34.85902
34.75371
36.78203
36.90682
36.93542
36.95107
36.96091
36.96711
36.97104
36.97346
36.9747
36.97494
36.97421
36.97242
36.9693
36.96438
36.95657
36.9442
36.92388
36.87677
36.2676
36.5638
36.68588
36.75844
36.80507
36.83493
36.85409
36.86596
36.87206
36.87324
36.86968
36.86084
36.84561
36.82172
36.78437
36.72634
36.63434
36.45993
35.94848
36.283
36.46415
36.5792
36.65547
36.7058
36.73874
36.75932
36.76995
36.77201
36.76581
36.75045
36.72412
36.68338
36.62133
36.52779
36.38496
36.14853
35.71953
36.05318
36.27143
36.41649
36.51544
36.58268
36.62759
36.65592
36.67063
36.67349
36.66489
36.64368
36.6076
36.5525
36.4708
36.35114
36.17427
35.89765
35.52446
35.8587
36.10218
36.26909
36.38576
36.46694
36.52206
36.55713
36.57548
36.57906
36.56831
36.54196
36.49745
36.43029
36.33279
36.19337
35.99291
35.67952
35.36276
35.6877
35.95097
36.13514
36.26624
36.35898
36.42268
36.46353
36.48505
36.48927
36.47662
36.44583
36.39418
36.31696
36.20645
36.0512
35.8323
35.51817
35.25085
35.55273
35.81618
36.01361
36.15642
36.25853
36.32932
36.37503
36.39925
36.40401
36.38975
36.35519
36.29758
36.21214
36.09112
35.92309
35.69307
35.38769
35.13554
35.43383
35.69839
35.90387
36.0553
36.16475
36.24133
36.29111
36.31759
36.3228
36.3072
36.26949
36.20694
36.11492
35.98589
35.80903
35.57326
35.27513
35.31301
35.58832
35.80202
35.96066
36.07634
36.15777
36.21099
36.23937
36.24497
36.22825
36.18786
36.12117
36.02358
35.8878
35.70344
35.45534
35.145
35.17784
35.45091
35.67425
35.84252
35.96587
36.05287
36.10997
36.14047
36.14649
36.12852
36.08514
36.01376
35.9096
35.76515
35.57078
35.31557
35.03251
34.94328
35.22453
35.46478
35.64948
35.78469
35.87985
35.94263
35.97614
35.98274
35.96305
35.91532
35.83709
35.72315
35.56433
35.35285
35.07511
35.00855
35.26252
35.456
35.59966
35.70278
35.77128
35.80734
35.81427
35.79341
35.74149
35.65637
35.53413
35.36566
35.14745
34.8626
34.79816
35.02443
35.24061
35.39988
35.51203
35.58637
35.62398
35.63087
35.60978
35.55407
35.46112
35.32858
35.14184
34.91575
34.77639
34.98729
35.17674
35.29721
35.37774
35.41702
35.42369
35.40277
35.34156
35.24033
35.09423
34.89768
34.73863
34.92368
35.05287
35.14
35.17789
35.18219
35.16537
35.09652
34.97855
34.85323
34.78205
34.8675
34.89444
34.89875
34.88647
34.81933
34.73218
36.71892
36.89028
36.93355
36.95146
36.96217
36.96925
36.97395
36.97704
36.97897
36.97997
36.98016
36.97958
36.97814
36.97567
36.97186
36.96608
36.9574
36.94389
36.91797
36.83798
36.19793
36.50504
36.67599
36.75947
36.81103
36.84542
36.86843
36.88362
36.89313
36.89807
36.89904
36.89615
36.88904
36.87689
36.85816
36.83
36.78802
36.72358
36.60885
36.35999
35.88798
36.20811
36.44398
36.57885
36.66541
36.72393
36.76363
36.79011
36.80678
36.81548
36.81718
36.81209
36.7996
36.77836
36.74584
36.6976
36.62661
36.51975
36.34416
36.04428
35.66457
35.97696
36.24087
36.41366
36.5285
36.60741
36.66175
36.69841
36.72164
36.73382
36.7362
36.72907
36.71163
36.6821
36.63731
36.57177
36.47677
36.33678
36.12119
35.81712
35.78618
36.0661
36.26429
36.40121
36.49708
36.56405
36.60973
36.63886
36.65419
36.6572
36.64821
36.62629
36.58938
36.53384
36.4536
36.33914
36.17477
35.9361
35.60726
35.62416
35.91548
36.12963
36.2835
36.39341
36.47118
36.5247
36.55904
36.57719
36.58077
36.57011
36.54421
36.50082
36.436
36.34338
36.21328
36.03156
35.78096
35.44614
35.45169
35.78277
36.00829
36.17506
36.29639
36.38323
36.44348
36.48235
36.50298
36.50705
36.49492
36.46554
36.41655
36.34387
36.24098
36.09849
35.90422
35.6405
35.30098
35.33373
35.66157
35.89764
36.07478
36.20539
36.29982
36.36579
36.40859
36.43137
36.43588
36.42247
36.39007
36.33628
36.25693
36.14558
35.99316
35.78833
35.5125
35.1825
35.22521
35.54747
35.79358
35.98037
36.11912
36.22014
36.29109
36.33731
36.36197
36.36686
36.35234
36.31731
36.25933
36.1742
36.05548
35.8942
35.67879
35.39393
35.08363
35.09492
35.41044
35.66425
35.86217
36.01071
36.11955
36.19629
36.24645
36.27328
36.2786
36.26281
36.22474
36.16193
36.07003
35.94247
35.77061
35.54427
35.23824
34.88503
35.15886
35.45344
35.6691
35.83245
35.95295
36.03823
36.09422
36.12417
36.13011
36.11251
36.06999
36.00004
35.89813
35.75722
35.56929
35.32223
35.03379
34.94954
35.24694
35.47652
35.6515
35.78264
35.87615
35.93779
35.97053
35.97694
35.95786
35.91114
35.83423
35.72292
35.57036
35.37111
35.08167
34.80252
34.73389
35.01393
35.25995
35.45219
35.59836
35.70115
35.76869
35.80406
35.81087
35.7905
35.73951
35.65504
35.53206
35.36258
35.14586
34.88333
34.76254
35.00602
35.22636
35.3916
35.50441
35.57849
35.61703
35.62421
35.60242
35.5462
35.45346
35.31691
35.12525
34.90229
34.75495
34.96834
35.15327
35.27872
35.35935
35.40211
35.40935
35.38627
35.32327
35.22069
35.07288
34.87746
34.71049
34.88353
35.01659
35.09622
35.15344
35.16105
35.13427
35.06114
34.94312
34.79524
34.73504
34.80872
34.85164
34.85511
34.82936
34.77898
36.69702
36.87339
36.92638
36.94927
36.96194
36.97001
36.97548
36.97921
36.98171
36.98329
36.98411
36.98427
36.98379
36.98261
36.9806
36.97754
36.97302
36.9664
36.95642
36.93974
36.90715
36.79792
36.18221
36.44526
36.64367
36.74845
36.80954
36.84904
36.87593
36.89433
36.90669
36.91451
36.9186
36.91941
36.91701
36.91115
36.90122
36.88609
36.86382
36.83133
36.78271
36.7038
36.56325
36.28608
35.86499
36.09474
36.39315
36.55892
36.66188
36.72994
36.77666
36.80886
36.83062
36.84441
36.85166
36.85309
36.84885
36.83849
36.82098
36.79442
36.75559
36.69934
36.61622
36.48648
36.27333
35.96148
35.63749
35.86671
36.17916
36.38615
36.52271
36.61533
36.67969
36.72445
36.75489
36.77428
36.78449
36.78651
36.78052
36.76595
36.74138
36.70433
36.6506
36.57352
36.46153
36.29364
36.03775
35.71707
35.67404
35.99934
36.23243
36.39381
36.50661
36.58623
36.64218
36.68051
36.70503
36.71798
36.72055
36.71295
36.69449
36.66349
36.61698
36.55014
36.45543
36.32075
36.12681
35.84511
35.50508
35.52422
35.84615
36.09584
36.27529
36.40431
36.49692
36.5627
36.60808
36.63724
36.6527
36.65576
36.64669
36.6247
36.5879
36.53302
36.45482
36.34545
36.19331
35.98149
35.68935
35.37053
35.39176
35.7066
35.97204
36.16608
36.30833
36.41193
36.48624
36.53785
36.57116
36.58887
36.59238
36.58199
36.55683
36.51488
36.45265
36.36471
36.24316
36.07699
35.8498
35.5487
35.24633
35.24216
35.57958
35.85828
36.06457
36.21796
36.33095
36.41266
36.46975
36.50676
36.52649
36.53041
36.51883
36.49083
36.44432
36.37568
36.27934
36.14748
35.96951
35.72953
35.38879
35.12853
35.46425
35.75233
35.96879
36.132
36.25324
36.34151
36.40348
36.4438
36.46533
36.46961
36.45697
36.42645
36.37587
36.30152
36.19777
36.05684
35.86857
35.61871
35.27898
35.02095
35.33272
35.62189
35.8493
36.02388
36.1548
36.25079
36.3185
36.36271
36.38637
36.39108
36.37719
36.34369
36.28832
36.20727
36.09482
35.9433
35.74328
35.48442
35.17272
35.10197
35.40551
35.6542
35.84616
35.99133
36.09878
36.17508
36.22513
36.25195
36.2573
36.24157
36.2036
36.14107
36.05004
35.92469
35.75752
35.53793
35.26088
34.95473
34.88333
35.18564
35.45875
35.66623
35.82416
35.9426
36.02715
36.08278
36.11253
36.11844
36.10105
36.05888
35.98945
35.8888
35.75138
35.57069
35.33028
35.03085
34.95502
35.24692
35.46828
35.64173
35.77339
35.867
35.92849
35.96123
35.9677
35.94864
35.90208
35.8253
35.7136
35.56138
35.36522
35.11313
34.8038
34.7424
34.99567
35.24315
35.43636
35.58328
35.68679
35.75479
35.79107
35.79816
35.77715
35.72549
35.64059
35.51671
35.34656
35.12939
34.88059
34.73578
34.98243
35.20356
35.36335
35.47826
35.55351
35.59451
35.6024
35.57877
35.52089
35.42659
35.29199
35.10288
34.87778
34.7179
34.9304
35.10201
35.23031
35.31361
35.36193
35.37129
35.34344
35.27783
35.1739
35.03303
34.84246
34.80051
34.92159
35.02468
35.07068
35.08551
35.05529
34.96491
34.87196
34.73554
34.70753
34.77495
34.78026
34.76086
36.69783
36.86084
36.91338
36.94398
36.95979
36.96948
36.97588
36.9803
36.98335
36.98543
36.98674
36.98744
36.98758
36.98717
36.98618
36.98451
36.98199
36.97831
36.97301
36.96519
36.95296
36.93182
36.88773
36.80689
36.192
36.41679
36.58645
36.7231
36.79892
36.84628
36.87787
36.89969
36.91483
36.92511
36.93166
36.93511
36.9358
36.93378
36.92886
36.92057
36.90805
36.88986
36.86367
36.82524
36.76588
36.66663
36.49437
36.30664
35.8817
36.1032
36.30843
36.51736
36.64342
36.72483
36.77993
36.81824
36.84495
36.86316
36.87477
36.8809
36.88211
36.87853
36.86981
36.85512
36.83299
36.80097
36.75511
36.68846
36.58778
36.4275
36.19241
35.9873
35.65612
35.8647
36.08403
36.33395
36.49787
36.60803
36.68407
36.73748
36.77496
36.80062
36.81703
36.82572
36.82744
36.82237
36.81002
36.78928
36.75815
36.71337
36.6497
36.55846
36.42449
36.22267
35.95321
35.75455
35.48406
35.6414
35.89778
36.17366
36.36448
36.49759
36.59159
36.65848
36.70577
36.73832
36.75921
36.77028
36.77249
36.76601
36.75028
36.72393
36.68453
36.62821
36.54894
36.43724
36.27801
36.04887
35.75182
35.57079
35.35701
35.49134
35.74322
36.03237
36.24263
36.39399
36.50314
36.58184
36.63796
36.6768
36.70181
36.7151
36.71775
36.70998
36.69112
36.65961
36.61273
36.54615
36.45342
36.32492
36.14641
35.89959
35.59717
35.41557
35.36435
35.6026
35.90327
36.13026
36.29679
36.4188
36.50781
36.5718
36.61633
36.64511
36.66043
36.66349
36.65453
36.63281
36.59662
36.543
36.46737
36.36304
36.22047
36.0258
35.76294
35.46342
35.28874
35.24277
35.47299
35.7853
36.02602
36.20518
36.33825
36.4363
36.5073
36.55696
36.58916
36.60635
36.60979
36.59973
36.5754
36.53497
36.47531
36.39167
36.27727
36.12277
35.91488
35.63741
35.31157
35.16152
35.11029
35.35484
35.67845
35.92857
36.11811
36.26082
36.36691
36.44421
36.49853
36.53386
36.55275
36.55653
36.54548
36.51876
36.47447
36.40936
36.31855
36.19527
36.03058
35.81252
35.52682
35.19868
35.01894
35.22782
35.54726
35.80741
36.00874
36.16268
36.27819
36.36296
36.42281
36.46189
36.48283
36.48703
36.47478
36.4452
36.3963
36.32471
36.22547
36.09183
35.91533
35.68615
35.39002
35.09063
34.99525
35.3329
35.60815
35.82872
35.99965
36.12913
36.2251
36.29336
36.33815
36.3622
36.36703
36.35297
36.31904
36.26313
36.18177
36.06995
35.92089
35.72587
35.4785
35.15469
35.09063
35.40392
35.64606
35.8332
35.97572
36.08241
36.15872
36.20896
36.23594
36.24136
36.2256
36.18754
36.12492
36.03419
35.91045
35.74707
35.53289
35.26574
34.93086
34.86824
35.17415
35.44844
35.6522
35.80902
35.92748
36.01231
36.06822
36.09825
36.10427
36.08676
36.04439
35.97476
35.8739
35.73696
35.55832
35.3236
35.02666
34.94305
35.22785
35.44833
35.62158
35.75304
35.84712
35.90926
35.94278
35.94949
35.92995
35.88272
35.80543
35.6936
35.5417
35.34582
35.09828
34.79416
34.70905
34.96633
35.21436
35.40593
35.55067
35.65504
35.72431
35.76223
35.76983
35.74765
35.6946
35.60859
35.48545
35.31745
35.10118
34.85047
34.6878
34.93358
35.14678
35.30911
35.42557
35.50359
35.54744
35.55626
35.53052
35.46991
35.37384
35.23608
35.05122
34.83427
34.84074
35.02219
35.14554
35.23569
35.28805
35.29817
35.26878
35.19627
35.08568
34.9282
34.71337
34.71121
34.82475
34.91214
34.99046
34.99849
34.94523
34.87795
34.78096
36.75658
36.8655
36.90846
36.93443
36.9555
36.9675
36.97522
36.98047
36.98413
36.98669
36.98844
36.98956
36.99015
36.99027
36.98992
36.98908
36.98767
36.98554
36.98248
36.97811
36.97178
36.96223
36.94673
36.92036
36.89149
36.81985
36.66445
36.22254
36.42933
36.57003
36.67901
36.77819
36.83658
36.87458
36.90051
36.91865
36.93137
36.94007
36.94564
36.94859
36.94918
36.94746
36.94328
36.93625
36.9257
36.9105
36.88884
36.85759
36.81083
36.73621
36.61804
36.50853
36.32402
35.90126
36.11833
36.29324
36.44872
36.60876
36.70807
36.7741
36.81964
36.85169
36.87422
36.88969
36.8996
36.90484
36.9059
36.90284
36.8954
36.8829
36.86417
36.83727
36.79912
36.74447
36.66393
36.53943
36.35946
36.21367
36.00217
35.66921
35.88482
36.06945
36.24946
36.45261
36.58532
36.67594
36.73939
36.7844
36.81622
36.83812
36.85219
36.85965
36.86115
36.8568
36.84623
36.8285
36.80201
36.76413
36.71073
36.63507
36.52578
36.36288
36.14371
35.98431
35.76667
35.48582
35.70258
35.88296
36.07842
36.3114
36.47013
36.58152
36.66084
36.71767
36.75809
36.78604
36.80403
36.81359
36.81551
36.80994
36.79641
36.77376
36.74003
36.69203
36.6249
36.53101
36.39829
36.20709
35.96171
35.79882
35.58547
35.36125
35.54838
35.72487
35.9306
36.18359
36.36265
36.49141
36.58459
36.65206
36.70036
36.73391
36.75557
36.7671
36.76942
36.7627
36.74639
36.71917
36.67876
36.62158
36.54225
36.43275
36.281
36.06894
35.80782
35.63667
35.45244
35.39757
35.58988
35.79833
36.06632
36.26211
36.40558
36.51087
36.58784
36.64332
36.68201
36.70707
36.72044
36.72313
36.71534
36.69646
36.66502
36.61849
36.55301
36.4629
36.33997
36.17233
35.94348
35.67358
35.49995
35.30882
35.27321
35.46504
35.67767
35.95836
36.16774
36.32366
36.43954
36.52503
36.58703
36.63046
36.65866
36.67373
36.67677
36.66799
36.64673
36.61139
36.55927
36.4863
36.38663
36.25211
36.07131
35.82887
35.54902
35.37717
35.18235
35.17109
35.34495
35.56721
35.85826
36.0785
36.24503
36.37027
36.46343
36.53138
36.57918
36.61029
36.62695
36.63031
36.62061
36.59713
36.55818
36.50094
36.42118
36.31298
36.16837
35.97669
35.72359
35.43478
35.24162
35.09663
35.04357
35.20313
35.43422
35.73398
35.96654
36.14538
36.28165
36.38389
36.45897
36.51203
36.5467
36.56529
36.56905
36.55822
36.53204
36.48873
36.42533
36.33748
36.21919
36.06277
35.8586
35.59386
35.2977
35.13219
34.99665
35.2179
35.52787
35.78115
35.97956
36.13263
36.24856
36.33449
36.39565
36.43581
36.4574
36.46178
36.44921
36.41885
36.36881
36.29597
36.19588
36.0624
35.88762
35.66313
35.37757
35.07008
34.92084
34.99638
35.30795
35.59053
35.80997
35.97932
36.1082
36.20446
36.27337
36.31877
36.34323
36.3482
36.33398
36.29963
36.24313
36.16129
36.04958
35.90168
35.70821
35.46057
35.12893
34.85107
35.06151
35.3835
35.62667
35.81303
35.9555
36.06265
36.13961
36.19044
36.21788
36.22345
36.2075
36.169
36.10584
36.01456
35.89061
35.72762
35.51408
35.24407
34.89121
34.8439
35.15096
35.42103
35.62559
35.78323
35.90236
35.98807
36.04486
36.07564
36.08189
36.06398
36.02088
35.95043
35.84886
35.71123
35.53162
35.29739
35.00492
34.8968
35.1792
35.40693
35.58256
35.71557
35.81136
35.87503
35.90983
35.91692
35.89658
35.84804
35.76919
35.65578
35.50213
35.30234
35.02071
34.73881
34.89039
35.13861
35.33942
35.49213
35.60038
35.67245
35.71241
35.72053
35.69713
35.64168
35.55276
35.4235
35.24705
35.00182
34.72978
34.83437
35.04861
35.22264
35.34518
35.42776
35.47482
35.48394
35.45692
35.39196
35.29139
35.14219
34.93692
34.69619
34.7133
34.9028
35.04311
35.13224
35.18898
35.19621
35.16733
35.08698
34.96609
34.81803
34.71935
34.79541
34.84772
34.83383
34.83162
34.75355
36.80051
36.8732
36.90973
36.93128
36.94811
36.96391
36.97344
36.97976
36.98414
36.98723
36.98941
36.99091
36.99187
36.99238
36.99249
36.99219
36.99147
36.99026
36.98845
36.98585
36.98217
36.97693
36.96922
36.95718
36.93863
36.92194
36.89366
36.84909
36.69024
36.2712
36.43984
36.57693
36.66644
36.74307
36.81908
36.8658
36.89703
36.91873
36.93407
36.94492
36.95238
36.95717
36.95972
36.96023
36.95876
36.95516
36.94913
36.94011
36.9272
36.90898
36.88303
36.84506
36.78639
36.69932
36.62642
36.51591
36.33443
36.17922
35.91922
36.13269
36.30571
36.43266
36.55133
36.6782
36.75883
36.81351
36.85181
36.87902
36.89829
36.91159
36.92013
36.92468
36.9256
36.92297
36.91655
36.90581
36.88975
36.86683
36.83458
36.78893
36.72285
36.62286
36.48255
36.37442
36.22572
36.02141
35.67286
35.89447
36.08594
36.23259
36.37848
36.54514
36.65495
36.73083
36.78455
36.82297
36.8503
36.86921
36.88138
36.88786
36.88917
36.88542
36.87628
36.86099
36.83819
36.80575
36.76033
36.6966
36.60565
36.47143
36.29283
36.16441
35.99658
35.77441
35.48474
35.70841
35.90484
36.06092
36.22491
36.42163
36.55563
36.65011
36.71784
36.76666
36.80157
36.82579
36.84142
36.84976
36.85145
36.84662
36.83488
36.81526
36.78609
36.74475
36.68725
36.60734
36.49509
36.33363
36.12771
35.98746
35.81254
35.58682
35.34182
35.56013
35.74852
35.91135
36.08838
36.30754
36.46137
36.57195
36.65223
36.71059
36.75253
36.78174
36.80065
36.81074
36.81279
36.80695
36.79274
36.76904
36.73392
36.68437
36.61589
36.52171
36.39146
36.20856
35.98307
35.83369
35.65721
35.44599
35.24982
35.40755
35.61147
35.78024
35.96548
36.20174
36.372
36.4965
36.58799
36.65503
36.70347
36.73734
36.75931
36.77106
36.77345
36.76665
36.75013
36.72262
36.68198
36.62488
36.54649
36.43975
36.29423
36.09415
35.85502
35.69974
35.51669
35.33163
35.28797
35.49018
35.6615
35.85311
36.10313
36.28705
36.42362
36.5251
36.60006
36.65451
36.69271
36.71755
36.73086
36.73357
36.72587
36.70718
36.67612
36.63034
36.56633
36.479
36.36119
36.20269
35.98858
35.73846
35.57955
35.39515
35.19519
35.18085
35.36847
35.54979
35.74895
36.0103
36.20576
36.35291
36.4634
36.54559
36.6056
36.64784
36.67538
36.69015
36.69317
36.68463
36.6639
36.6295
36.57896
36.50858
36.41313
36.28548
36.1158
35.89008
35.6301
35.46368
35.25844
35.09113
35.06717
35.22649
35.41659
35.62097
35.89414
36.10286
36.26247
36.38368
36.47455
36.54131
36.58852
36.61938
36.63595
36.63935
36.62976
36.60652
36.56803
36.51168
36.43361
36.32846
36.18913
36.00641
35.76773
35.4987
35.32857
35.15329
35.0309
35.20195
35.41258
35.7009
35.93107
36.11027
36.24793
36.3521
36.42927
36.4842
36.52028
36.53972
36.54372
36.53248
36.50528
36.46039
36.39502
36.30515
36.18516
36.02774
35.82417
35.56511
35.28611
35.10914
34.94128
34.98066
35.1931
35.49756
35.75411
35.95353
36.10711
36.22389
36.31099
36.37333
36.41444
36.43664
36.44121
36.42839
36.39737
36.34633
36.27234
36.17124
36.0371
35.86169
35.63525
35.348
35.05311
34.89429
34.96558
35.27779
35.56378
35.78399
35.95395
36.0838
36.18119
36.25119
36.29748
36.32254
36.3277
36.31323
36.27826
36.22087
36.13795
36.0252
35.87647
35.68245
35.43299
35.09757
34.80369
35.02956
35.35185
35.59276
35.78067
35.92504
36.03381
36.11219
36.16416
36.19239
36.1982
36.18188
36.14255
36.0782
35.98547
35.85977
35.69484
35.481
35.21292
34.86194
34.77644
35.10438
35.36773
35.57749
35.7393
35.86162
35.94974
36.00825
36.04016
36.04674
36.02823
35.98383
35.91145
35.80714
35.66592
35.48144
35.24186
34.95094
34.83283
35.09948
35.33271
35.51611
35.65605
35.75612
35.82237
35.85873
35.86619
35.84507
35.79456
35.71261
35.59347
35.43246
35.22383
34.96021
34.66162
34.81259
35.04556
35.2466
35.40904
35.52307
35.59823
35.63991
35.6482
35.62422
35.56632
35.47362
35.33558
35.15241
34.92304
34.67744
34.7073
34.9287
35.1177
35.24251
35.3266
35.37363
35.38133
35.35629
35.28997
35.18803
35.03382
34.84101
34.78089
34.90253
34.99876
35.05008
35.05443
35.03022
34.94361
34.84579
34.68336
34.72893
34.74291
36.7566
36.8732
36.91023
36.93169
36.94566
36.95786
36.97033
36.97814
36.98343
36.98714
36.98979
36.99167
36.99297
36.9938
36.99425
36.99434
36.99408
36.99346
36.99241
36.99084
36.98861
36.98548
36.98106
36.97467
36.96494
36.95086
36.93941
36.92218
36.89499
36.83692
36.22264
36.43984
36.57846
36.66968
36.7324
36.78987
36.85052
36.88899
36.91519
36.93363
36.94679
36.95615
36.96261
36.96678
36.969
36.96946
36.96818
36.96506
36.95984
36.95204
36.94094
36.92537
36.90344
36.87186
36.82414
36.75666
36.70392
36.6286
36.51676
36.34192
35.90141
36.13279
36.31017
36.4397
36.53582
36.62903
36.73236
36.79941
36.84555
36.87822
36.90162
36.91829
36.92984
36.93728
36.94126
36.94207
36.93979
36.93422
36.92488
36.91098
36.89122
36.86358
36.82483
36.76945
36.687
36.57465
36.49144
36.37998
36.22887
36.01299
35.6694
35.89459
36.09093
36.24257
36.36032
36.47981
36.61866
36.71121
36.77575
36.82184
36.85502
36.87874
36.8952
36.90583
36.91151
36.91268
36.90942
36.90146
36.88814
36.86833
36.84026
36.80116
36.7467
36.66967
36.5571
36.40955
36.30534
36.17182
35.99929
35.77193
35.48601
35.70852
35.91022
36.07314
36.20482
36.34356
36.51101
36.62558
36.70672
36.76521
36.80758
36.83799
36.85916
36.87286
36.88018
36.88169
36.87749
36.86723
36.85009
36.82465
36.78872
36.73893
36.6701
36.57392
36.43609
36.26147
36.14275
35.99633
35.81485
35.58692
35.36139
35.56022
35.7571
35.92514
36.0666
36.21968
36.40983
36.54312
36.639
36.70882
36.75974
36.79645
36.82208
36.8387
36.8476
36.84944
36.84433
36.83187
36.8111
36.78035
36.73706
36.6774
36.59561
36.48274
36.3241
36.12876
35.99941
35.84493
35.6623
35.44958
35.40761
35.61953
35.79455
35.9432
36.10663
36.31476
36.46393
36.57283
36.65294
36.71176
36.75436
36.78421
36.8036
36.814
36.81615
36.81018
36.79564
36.77143
36.73568
36.68555
36.61685
36.52343
36.39607
36.22029
36.00932
35.8724
35.71101
35.52064
35.32104
35.28808
35.50118
35.67808
35.83115
36.00238
36.22505
36.38776
36.50819
36.59765
36.66377
36.71188
36.74568
36.7677
36.77952
36.78197
36.77519
36.75867
36.73122
36.69079
36.6343
36.5573
36.45343
36.31348
36.12343
35.90019
35.75797
35.59336
35.4016
35.19237
35.18106
35.39014
35.56954
35.727
35.90491
36.13967
36.31409
36.44484
36.54285
36.61574
36.669
36.70654
36.73104
36.74421
36.74694
36.73939
36.72101
36.6905
36.64566
36.58324
36.49859
36.38527
36.2342
36.03206
35.79863
35.65154
35.48333
35.28951
35.09058
35.06755
35.26683
35.44109
35.59983
35.78402
36.03203
36.22006
36.36308
36.47137
36.55249
36.61208
36.65425
36.68184
36.6967
36.69979
36.69128
36.67057
36.63625
36.58599
36.51632
36.42243
36.29778
36.13363
35.91774
35.67373
35.523
35.35779
35.16629
35.0432
35.21888
35.38915
35.58505
35.85252
36.06179
36.22391
36.34809
36.44197
36.51148
36.56096
36.59349
36.61105
36.61471
36.60467
36.58024
36.53989
36.48107
36.40012
36.29193
36.14974
35.96511
35.7282
35.46787
35.30727
35.1232
34.94754
34.99961
35.16726
35.37877
35.66617
35.89842
36.07953
36.219
36.32504
36.40404
36.46059
36.4979
36.51809
36.52232
36.51077
36.48274
36.43654
36.3695
36.27777
36.15593
35.99665
35.79091
35.53068
35.25239
35.0764
34.89349
34.93423
35.15697
35.46447
35.72235
35.92286
36.07794
36.19648
36.28529
36.34912
36.39137
36.4143
36.4191
36.40599
36.37421
36.32197
36.24644
36.1436
36.00778
35.83104
35.60336
35.31436
35.01155
34.83637
34.92746
35.24135
35.52501
35.74575
35.91789
36.05021
36.14982
36.22164
36.2693
36.29521
36.30064
36.28581
36.2499
36.19105
36.10618
35.99107
35.83987
35.64431
35.3948
35.06214
34.76418
34.9814
35.29228
35.53833
35.73048
35.87895
35.99124
36.0723
36.12612
36.15545
36.16159
36.14476
36.10413
36.03768
35.94189
35.81237
35.64315
35.425
35.14239
34.8115
34.70697
34.99767
35.29143
35.5068
35.67431
35.80222
35.89432
35.95532
35.98863
35.99557
35.9764
35.93024
35.85487
35.7457
35.59866
35.40869
35.16239
34.8644
34.68755
34.97873
35.2371
35.42783
35.57511
35.68011
35.74933
35.78725
35.79501
35.77325
35.7206
35.63506
35.50953
35.34095
35.12648
34.86926
34.65739
34.9147
35.1349
35.30148
35.42
35.49913
35.54248
35.55094
35.52645
35.46576
35.36943
35.22579
35.0387
34.78917