/*--------------------------------*- C++ -*----------------------------------*\
| =========                 |                                                 |
| \\      /  F ield         | OpenFOAM: The Open Source CFD Toolbox           |
|  \\    /   O peration     | Version:  5.x                                   |
|   \\  /    A nd           | Web:      www.OpenFOAM.org                      |
|    \\/     M anipulation  |                                                 |
\*---------------------------------------------------------------------------*/
FoamFile
{
    version     2.0;
    format      ascii;
    class       volScalarField;
    location    "119/muscle";
    object      T;
}
// * * * * * * * * * * * * * * * * * * * * * * * * * * * * * * * * * * * * * //

dimensions      [0 0 0 1 0 0 0];

internalField   nonuniform List<scalar> 
209768
(
37.00993
37.00914
37.00911
37.00921
37.03808
37.03946
37.03962
37.03913
37.07386
37.07398
37.07453
37.10725
37.10717
37.10875
37.13546
37.13523
37.00846
37.0081
37.00788
37.00781
37.00777
37.00789
37.00803
37.00804
37.00978
37.0403
37.04022
37.03937
37.0391
37.03885
37.03966
37.03979
37.03914
37.07499
37.07373
37.07163
37.0706
37.0702
37.07139
37.07232
37.07349
37.11009
37.10617
37.10339
37.10227
37.10166
37.10255
37.10447
37.10705
37.13886
37.1369
37.13496
37.13369
37.13346
37.13405
37.13629
37.13798
37.16985
37.16957
37.16632
37.16468
37.16474
37.16523
37.16849
37.17129
37.20199
37.19914
37.19496
37.1946
37.19604
37.19878
37.20599
37.2346
37.22667
37.22467
37.22431
37.22786
37.22919
37.24359
37.2658
37.25947
37.25669
37.2569
37.25626
37.26005
37.29731
37.29445
37.29324
37.29655
37.2967
37.00844
37.00827
37.00779
37.00759
37.00748
37.00743
37.00754
37.00767
37.00791
37.00807
37.01035
37.03945
37.04013
37.03902
37.03809
37.03756
37.03736
37.03789
37.03847
37.03929
37.03974
37.03788
37.073
37.07139
37.06999
37.06857
37.06775
37.06748
37.06818
37.06918
37.07051
37.07171
37.07417
37.10603
37.10293
37.10059
37.09889
37.09807
37.0978
37.09838
37.09967
37.10155
37.10403
37.10972
37.13586
37.1346
37.1316
37.12936
37.12835
37.12822
37.12866
37.13049
37.13308
37.13781
37.13649
37.16856
37.16656
37.16283
37.15959
37.15806
37.1579
37.15858
37.16105
37.16548
37.16869
37.16991
37.20316
37.19933
37.19372
37.18965
37.18729
37.18688
37.18826
37.19123
37.19663
37.20174
37.22979
37.23672
37.22528
37.21935
37.21689
37.21634
37.21808
37.22138
37.22904
37.23609
37.26209
37.26208
37.25477
37.24919
37.24694
37.24639
37.24782
37.2514
37.2582
37.26332
37.2965
37.29566
37.28857
37.28527
37.28449
37.28725
37.29038
37.295
37.29954
37.34924
37.34869
37.35222
37.352
37.35253
37.34851
37.34802
37.39819
37.40095
37.39939
37.40105
37.3977
37.00918
37.00829
37.00773
37.00765
37.00743
37.00727
37.00717
37.00714
37.00721
37.00734
37.00753
37.00768
37.00789
37.00765
37.03701
37.0397
37.0385
37.03799
37.03717
37.03646
37.03603
37.03592
37.03623
37.03678
37.03755
37.0382
37.03896
37.03844
37.0718
37.06937
37.06802
37.06677
37.06567
37.06502
37.06486
37.0653
37.06617
37.06736
37.06859
37.07045
37.07297
37.10458
37.10041
37.09827
37.09634
37.09486
37.09408
37.09392
37.09439
37.09553
37.09725
37.09932
37.10206
37.10775
37.13523
37.1315
37.12887
37.12614
37.1241
37.12309
37.12292
37.12346
37.12502
37.12746
37.13044
37.13301
37.13646
37.16621
37.16249
37.1594
37.15595
37.15322
37.15182
37.15159
37.15235
37.15442
37.15773
37.16106
37.1638
37.16836
37.19639
37.19327
37.18991
37.18553
37.18216
37.18034
37.17999
37.18108
37.18361
37.1877
37.19168
37.19673
37.19994
37.22589
37.22241
37.22034
37.21495
37.21097
37.20894
37.20852
37.20978
37.21265
37.21751
37.22201
37.22412
37.25774
37.25205
37.24893
37.24383
37.23965
37.23756
37.23711
37.23842
37.24145
37.24633
37.25136
37.25364
37.29547
37.28908
37.28477
37.28092
37.27682
37.27458
37.27409
37.27557
37.27863
37.2825
37.2866
37.2919
37.34428
37.34186
37.33844
37.33573
37.33569
37.3354
37.3359
37.3368
37.33883
37.34265
37.39714
37.39348
37.38918
37.38897
37.38772
37.38958
37.38969
37.39304
37.39938
37.44094
37.4403
37.43739
37.43734
37.43781
37.44093
37.00801
37.00791
37.00743
37.00723
37.00707
37.00695
37.00688
37.00686
37.00691
37.007
37.00715
37.00731
37.00762
37.008
37.00872
37.04145
37.03888
37.03707
37.03618
37.03548
37.03491
37.03458
37.0345
37.03472
37.03517
37.03581
37.03656
37.03781
37.03994
37.03841
37.07152
37.06899
37.06654
37.0651
37.06391
37.06297
37.06243
37.06232
37.06265
37.0634
37.06447
37.06575
37.0676
37.07062
37.07299
37.10357
37.09896
37.09609
37.09412
37.0924
37.09108
37.09036
37.09021
37.09064
37.09167
37.09322
37.09507
37.09735
37.10094
37.10732
37.13419
37.129
37.1258
37.12333
37.12099
37.11922
37.11827
37.11809
37.11864
37.12001
37.12211
37.12457
37.12722
37.13122
37.13507
37.16456
37.15905
37.15557
37.15251
37.14955
37.14728
37.14606
37.14582
37.14654
37.1483
37.15099
37.15404
37.15721
37.16124
37.16721
37.19431
37.18955
37.18508
37.1815
37.17795
37.17523
37.17373
37.17343
37.17433
37.17643
37.17968
37.18327
37.18729
37.19138
37.19854
37.22448
37.21918
37.21372
37.21006
37.2061
37.20302
37.20134
37.201
37.20202
37.20439
37.20803
37.21195
37.216
37.22348
37.25556
37.2474
37.24206
37.23795
37.23386
37.23061
37.22882
37.22846
37.22954
37.23206
37.23583
37.24004
37.2443
37.2511
37.2925
37.2874
37.27835
37.27328
37.26941
37.26622
37.26443
37.26405
37.26516
37.26767
37.27121
37.27561
37.28205
37.28943
37.34546
37.33578
37.33045
37.32672
37.32406
37.32295
37.32265
37.32342
37.32523
37.32826
37.3329
37.34096
37.35596
37.39377
37.38658
37.38139
37.37828
37.37692
37.37642
37.37762
37.37943
37.38315
37.39132
37.40012
37.45161
37.43912
37.43311
37.43053
37.4281
37.42789
37.42877
37.43184
37.43728
37.44374
37.4847
37.48308
37.48168
37.48159
37.48192
37.48375
37.48798
37.00817
37.00775
37.00745
37.00711
37.0069
37.00676
37.00666
37.0066
37.00659
37.00663
37.00671
37.00683
37.00699
37.00726
37.00763
37.00779
37.0103
37.03912
37.03857
37.03704
37.03556
37.03464
37.03398
37.0335
37.03322
37.03316
37.03333
37.03372
37.03429
37.03505
37.03622
37.03789
37.03871
37.03805
37.07132
37.06844
37.06602
37.06389
37.06245
37.06133
37.0605
37.06002
37.05993
37.06021
37.06087
37.06185
37.06311
37.06486
37.06728
37.06958
37.07322
37.10297
37.09808
37.09477
37.09223
37.09034
37.08876
37.08759
37.08692
37.08679
37.08719
37.08811
37.08951
37.09123
37.09339
37.09634
37.1001
37.10734
37.13274
37.12782
37.12371
37.12072
37.11833
37.11626
37.11471
37.11385
37.11368
37.11419
37.11541
37.11725
37.11948
37.1221
37.12559
37.13026
37.13313
37.16395
37.15781
37.15294
37.14931
37.14633
37.14375
37.14181
37.14073
37.14052
37.14116
37.14268
37.14498
37.14777
37.15101
37.15514
37.16072
37.16589
37.19681
37.18873
37.18238
37.17774
37.17417
37.17111
37.16882
37.16754
37.16728
37.16805
37.16984
37.17257
37.17588
37.1799
37.18518
37.19368
37.22411
37.21807
37.21106
37.20565
37.20166
37.19825
37.19568
37.19424
37.19395
37.19482
37.19683
37.19987
37.20356
37.2081
37.21445
37.22142
37.25515
37.24622
37.23892
37.2331
37.22871
37.22507
37.22233
37.22079
37.22048
37.22141
37.22356
37.22679
37.2308
37.23576
37.24242
37.25061
37.2866
37.27616
37.26864
37.26345
37.25961
37.25679
37.25521
37.25489
37.25585
37.25806
37.26139
37.26584
37.272
37.28097
37.29104
37.35271
37.33719
37.32688
37.32057
37.31636
37.31359
37.31218
37.31188
37.31274
37.31481
37.31823
37.32341
37.33146
37.34495
37.36033
37.39382
37.38342
37.37613
37.37094
37.3678
37.36624
37.36589
37.36688
37.36912
37.37318
37.37959
37.38831
37.40083
37.45392
37.44096
37.43059
37.42378
37.42027
37.41849
37.41823
37.41912
37.42183
37.42686
37.4345
37.44737
37.49104
37.48618
37.47719
37.47303
37.47139
37.47117
37.47182
37.47517
37.48209
37.48869
37.53304
37.52774
37.52665
37.52606
37.52573
37.53078
37.52775
37.00904
37.00756
37.00729
37.00704
37.00679
37.00662
37.00649
37.0064
37.00635
37.00634
37.00637
37.00644
37.00655
37.0067
37.00691
37.00717
37.0074
37.00784
37.03872
37.03769
37.03642
37.03521
37.03408
37.03326
37.03265
37.03222
37.03198
37.03193
37.03208
37.03241
37.03293
37.03364
37.03461
37.03584
37.03697
37.03856
37.07224
37.06795
37.06534
37.06321
37.0614
37.06004
37.05899
37.05824
37.05781
37.05773
37.05798
37.05858
37.05948
37.06067
37.06225
37.06426
37.0665
37.06981
37.10492
37.09846
37.09423
37.09116
37.08876
37.08691
37.08545
37.08438
37.08378
37.08366
37.08402
37.08486
37.08613
37.08778
37.08988
37.0926
37.09611
37.10143
37.1339
37.12899
37.12332
37.11926
37.11624
37.11388
37.11198
37.11059
37.1098
37.10965
37.11012
37.11121
37.11287
37.115
37.11764
37.12113
37.12589
37.13253
37.16683
37.15971
37.15266
37.14756
37.14379
37.14086
37.13851
37.13679
37.13583
37.13564
37.13621
37.13756
37.13961
37.14225
37.14555
37.1499
37.15588
37.16274
37.19961
37.18883
37.18186
37.17583
37.17124
37.16774
37.16496
37.16294
37.16181
37.16159
37.16226
37.16384
37.16626
37.16939
37.17337
37.17864
37.18535
37.19332
37.2244
37.21764
37.21025
37.20362
37.19837
37.19438
37.19124
37.18897
37.1877
37.18745
37.18821
37.18999
37.1927
37.19625
37.20081
37.20679
37.21388
37.22198
37.24728
37.23861
37.23108
37.22517
37.22071
37.21728
37.21482
37.21345
37.21317
37.214
37.21592
37.21887
37.22279
37.22791
37.23464
37.24314
37.25268
37.28505
37.27614
37.26705
37.25994
37.25476
37.25097
37.24834
37.24688
37.24659
37.24747
37.24951
37.25271
37.25715
37.26321
37.2714
37.28095
37.29139
37.34461
37.33888
37.32688
37.31764
37.3113
37.30695
37.30411
37.30262
37.30232
37.30321
37.30536
37.30891
37.31418
37.32185
37.33268
37.3438
37.39393
37.38283
37.37345
37.36622
37.36114
37.35795
37.35633
37.35601
37.35697
37.35933
37.36342
37.36954
37.37796
37.38795
37.40037
37.4429
37.43965
37.42856
37.4199
37.41396
37.41037
37.40862
37.40832
37.40927
37.41192
37.41667
37.42376
37.43407
37.44007
37.489
37.48058
37.47276
37.46641
37.46238
37.46067
37.46042
37.46122
37.4642
37.4695
37.47662
37.48365
37.52484
37.52045
37.51735
37.51335
37.51268
37.5126
37.51256
37.51567
37.51936
37.52234
37.56091
37.55714
37.5606
37.56074
37.56035
37.55715
37.56077
37.00942
37.00771
37.00723
37.00694
37.00672
37.00652
37.00636
37.00625
37.00617
37.00612
37.00612
37.00614
37.0062
37.0063
37.00643
37.00661
37.00683
37.00707
37.00744
37.00799
37.0391
37.03818
37.03624
37.03486
37.03373
37.03276
37.03202
37.03146
37.03107
37.03085
37.0308
37.03093
37.03124
37.03172
37.03236
37.03322
37.03428
37.0355
37.03714
37.03915
37.07284
37.06894
37.06548
37.06287
37.06081
37.05915
37.05786
37.05688
37.05618
37.05579
37.05572
37.05595
37.05649
37.05733
37.05846
37.05993
37.06179
37.06408
37.0671
37.07091
37.10605
37.09985
37.09505
37.09101
37.08798
37.08564
37.08383
37.08244
37.08145
37.0809
37.08079
37.08112
37.08189
37.08309
37.08468
37.08673
37.0894
37.09288
37.09749
37.1025
37.13076
37.12452
37.11925
37.11526
37.11223
37.10989
37.10809
37.10681
37.10609
37.10595
37.10638
37.10739
37.10893
37.11099
37.11364
37.11711
37.12171
37.1276
37.13451
37.16109
37.15362
37.14749
37.14261
37.13887
37.13599
37.13377
37.13221
37.13133
37.13115
37.13168
37.13291
37.1348
37.13734
37.14061
37.14489
37.15041
37.15705
37.16587
37.19402
37.18251
37.17556
37.16988
37.16544
37.16202
37.15941
37.15757
37.15654
37.15634
37.15695
37.15839
37.16062
37.16362
37.16752
37.17256
37.17886
37.1869
37.19712
37.2215
37.21123
37.20337
37.19693
37.19182
37.18791
37.18493
37.18285
37.18169
37.18146
37.18216
37.18378
37.18631
37.18973
37.19421
37.19999
37.20708
37.21621
37.2269
37.25126
37.24
37.23113
37.2238
37.218
37.21359
37.21028
37.208
37.20672
37.20647
37.20723
37.20901
37.21181
37.21564
37.22071
37.22727
37.23539
37.24542
37.25933
37.29067
37.27696
37.2673
37.25877
37.25198
37.24691
37.2432
37.24068
37.2393
37.23902
37.23985
37.2418
37.2449
37.24925
37.25515
37.26284
37.27204
37.28453
37.3447
37.33815
37.3272
37.31701
37.30873
37.3026
37.29827
37.29543
37.29392
37.29362
37.29452
37.29668
37.30023
37.30541
37.31259
37.32195
37.33233
37.34048
37.39379
37.38286
37.37254
37.36379
37.35683
37.35186
37.34867
37.34701
37.34669
37.34766
37.35006
37.35411
37.36005
37.36799
37.37738
37.39091
37.40041
37.44933
37.43597
37.42691
37.4176
37.40977
37.40418
37.40063
37.39885
37.39853
37.39953
37.40217
37.40672
37.41339
37.42225
37.43105
37.43968
37.48719
37.47901
37.46888
37.46124
37.45548
37.45167
37.44988
37.44958
37.45053
37.45334
37.45815
37.46487
37.47352
37.48174
37.52545
37.51718
37.50983
37.50486
37.50112
37.49975
37.49955
37.50017
37.50283
37.50719
37.51306
37.52019
37.56149
37.55695
37.55063
37.54727
37.54614
37.54598
37.54651
37.54838
37.55339
37.55963
37.59228
37.58889
37.58906
37.5884
37.58878
37.59085
37.01032
37.00787
37.00736
37.00697
37.00668
37.00646
37.00628
37.00614
37.00603
37.00596
37.00592
37.00591
37.00593
37.00599
37.00608
37.0062
37.00636
37.00657
37.00682
37.00715
37.00759
37.00851
37.03859
37.03897
37.03689
37.03505
37.03363
37.03251
37.03161
37.03091
37.03038
37.03002
37.02981
37.02977
37.0299
37.03018
37.03062
37.03123
37.03203
37.03304
37.03429
37.03591
37.03795
37.03932
37.07402
37.07235
37.06679
37.06338
37.06077
37.05874
37.05713
37.05589
37.05496
37.05431
37.05395
37.05388
37.0541
37.0546
37.05539
37.05647
37.05789
37.05969
37.06199
37.06497
37.06895
37.07219
37.1091
37.10214
37.09688
37.09192
37.08807
37.0851
37.08281
37.08104
37.07971
37.07878
37.07826
37.07816
37.07847
37.0792
37.08033
37.08187
37.08388
37.08649
37.08986
37.09426
37.09989
37.10596
37.13352
37.12671
37.12037
37.11542
37.11157
37.10859
37.1063
37.10457
37.10337
37.1027
37.10256
37.10296
37.1039
37.10537
37.10737
37.10998
37.11337
37.11774
37.12334
37.13059
37.1358
37.16493
37.15601
37.14862
37.14274
37.13806
37.13441
37.1316
37.12948
37.12801
37.12719
37.12703
37.12752
37.12866
37.13046
37.13291
37.13612
37.14026
37.14551
37.1521
37.16027
37.16982
37.19534
37.18594
37.17685
37.16998
37.16452
37.1602
37.15688
37.15438
37.15266
37.1517
37.1515
37.15208
37.15342
37.15553
37.15843
37.16222
37.1671
37.17321
37.18107
37.19073
37.20225
37.22733
37.21574
37.20495
37.1971
37.19085
37.18589
37.18207
37.17922
37.17725
37.17617
37.17595
37.1766
37.17813
37.18053
37.18385
37.18822
37.19381
37.20078
37.20985
37.22435
37.26675
37.24502
37.2328
37.2241
37.21705
37.21144
37.20713
37.20394
37.20175
37.20055
37.20031
37.20103
37.20272
37.2054
37.20913
37.21407
37.22039
37.2282
37.23825
37.25451
37.30494
37.2819
37.26874
37.25915
37.25111
37.24465
37.23972
37.23611
37.23367
37.23234
37.23207
37.23287
37.23475
37.23776
37.24201
37.24768
37.25494
37.26373
37.27471
37.29267
37.33836
37.32787
37.31735
37.30799
37.30033
37.29446
37.29021
37.2874
37.28589
37.28559
37.28649
37.28864
37.29215
37.29718
37.30394
37.31248
37.32249
37.33341
37.34462
37.39813
37.38508
37.3728
37.36286
37.35456
37.34791
37.34307
37.3399
37.33823
37.33791
37.33889
37.34129
37.34527
37.35101
37.35852
37.36756
37.37883
37.39123
37.44125
37.42603
37.41621
37.40737
37.40006
37.39471
37.39122
37.38942
37.38908
37.39012
37.39275
37.39714
37.40347
37.41166
37.42088
37.43217
37.45663
37.48891
37.47907
37.46769
37.45813
37.45065
37.4451
37.44141
37.43955
37.4392
37.44026
37.44303
37.44765
37.45414
37.46267
37.47294
37.48277
37.53622
37.51747
37.50656
37.49929
37.49376
37.49002
37.48826
37.48795
37.48892
37.49166
37.4963
37.50258
37.51132
37.5237
37.56542
37.55466
37.54704
37.54033
37.53647
37.5347
37.53434
37.53538
37.53805
37.5431
37.54998
37.55863
37.59506
37.587
37.58221
37.58039
37.57941
37.58092
37.58546
37.59098
37.59957
37.63154
37.62785
37.62737
37.62917
37.01048
37.00805
37.00757
37.00713
37.00676
37.00647
37.00625
37.00607
37.00594
37.00584
37.00577
37.00573
37.00572
37.00574
37.0058
37.00588
37.006
37.00615
37.00635
37.0066
37.00693
37.00734
37.00779
37.00859
37.03871
37.0393
37.03802
37.03584
37.03399
37.03256
37.03145
37.03058
37.02991
37.02941
37.02906
37.02887
37.02883
37.02895
37.02921
37.02964
37.03022
37.03099
37.03197
37.03323
37.03486
37.03691
37.03876
37.03963
37.07453
37.07127
37.06889
37.06481
37.06147
37.05888
37.05688
37.05532
37.05412
37.05322
37.05261
37.05226
37.05219
37.0524
37.05288
37.05364
37.05468
37.05605
37.05782
37.06009
37.06303
37.06679
37.07018
37.07287
37.10948
37.10314
37.09939
37.09381
37.08906
37.08535
37.08247
37.08023
37.07851
37.07723
37.07634
37.07585
37.07575
37.07605
37.07673
37.07782
37.07931
37.08128
37.08382
37.08709
37.09129
37.09657
37.10174
37.10549
37.13616
37.13603
37.12985
37.12261
37.11661
37.11188
37.10816
37.10526
37.10303
37.10136
37.10021
37.09957
37.09945
37.09983
37.10072
37.10212
37.10407
37.10662
37.10991
37.1141
37.11944
37.12611
37.13338
37.13554
37.169
37.16619
37.15983
37.15124
37.14408
37.13841
37.1339
37.13035
37.12761
37.12556
37.12416
37.12338
37.12323
37.12369
37.12478
37.1265
37.12888
37.13201
37.13602
37.14108
37.14746
37.15535
37.16371
37.16827
37.19802
37.19068
37.18022
37.17157
37.1649
37.15962
37.15543
37.1522
37.14979
37.14814
37.14723
37.14705
37.1476
37.14887
37.1509
37.15371
37.1574
37.16211
37.16803
37.17561
37.18531
37.19475
37.20231
37.22854
37.22236
37.20914
37.19892
37.19131
37.18527
37.18047
37.17675
37.17399
37.17211
37.17107
37.17086
37.17149
37.17294
37.17526
37.17848
37.18272
37.18812
37.19488
37.20361
37.21565
37.22848
37.22966
37.26409
37.25398
37.23729
37.22598
37.21757
37.21081
37.2054
37.20121
37.19812
37.19601
37.19486
37.19463
37.19532
37.19695
37.19954
37.20316
37.20794
37.21401
37.22153
37.23113
37.24488
37.26149
37.30551
37.2911
37.27333
37.26096
37.25168
37.24403
37.23787
37.2331
37.22958
37.22721
37.22592
37.22566
37.22644
37.22826
37.23119
37.23531
37.24077
37.24767
37.25608
37.26657
37.28208
37.30054
37.34243
37.33065
37.31896
37.30859
37.29973
37.29249
37.28684
37.2827
37.27994
37.27844
37.27815
37.27904
37.28115
37.28459
37.28947
37.29591
37.30396
37.31359
37.3247
37.33799
37.39013
37.37546
37.36352
37.35381
37.34583
37.33946
37.33477
37.33164
37.32998
37.32965
37.33064
37.33302
37.33691
37.34244
37.34963
37.35841
37.36923
37.38194
37.39616
37.44817
37.43131
37.41661
37.40635
37.39777
37.39083
37.38568
37.38226
37.38045
37.3801
37.38117
37.38376
37.38804
37.39408
37.40188
37.4112
37.42302
37.44008
37.48065
37.46816
37.45721
37.44798
37.44073
37.43534
37.43172
37.42981
37.42945
37.43056
37.43331
37.43781
37.44411
37.45235
37.4625
37.47392
37.48672
37.52609
37.51984
37.50628
37.49638
37.48905
37.48351
37.47977
37.47782
37.47745
37.47858
37.48141
37.48606
37.49244
37.50097
37.51248
37.52464
37.56279
37.55459
37.54406
37.53634
37.53022
37.52626
37.52417
37.52375
37.52499
37.52799
37.53297
37.53998
37.54886
37.55795
37.58764
37.58238
37.57641
37.57212
37.56948
37.56892
37.57047
37.57416
37.57946
37.58701
37.59201
37.61772
37.62061
37.61757
37.61372
37.61302
37.61662
37.61995
37.61751
37.00913
37.00803
37.00763
37.00731
37.0069
37.00655
37.00627
37.00606
37.00589
37.00576
37.00566
37.00559
37.00556
37.00555
37.00557
37.00562
37.0057
37.00582
37.00597
37.00616
37.0064
37.00672
37.0071
37.00749
37.0078
37.00835
37.01042
37.03868
37.03941
37.03814
37.03676
37.03471
37.03297
37.03159
37.0305
37.02965
37.029
37.02852
37.02819
37.02801
37.02797
37.02808
37.02833
37.02874
37.02931
37.03005
37.03101
37.03224
37.0338
37.03571
37.03757
37.03879
37.03958
37.07436
37.07134
37.06878
37.06641
37.06273
37.05961
37.05713
37.05519
37.05367
37.0525
37.05163
37.05104
37.05071
37.05065
37.05084
37.0513
37.05203
37.05305
37.05438
37.0561
37.0583
37.06109
37.06452
37.0678
37.06995
37.07291
37.10956
37.10299
37.09953
37.09612
37.09081
37.08637
37.08283
37.08005
37.07787
37.0762
37.07495
37.0741
37.07363
37.07354
37.07382
37.07448
37.07552
37.07698
37.07889
37.08136
37.08449
37.08847
37.09338
37.0982
37.10103
37.10573
37.13656
37.13376
37.13044
37.12576
37.11882
37.11314
37.10861
37.10502
37.10221
37.10003
37.09841
37.09731
37.0967
37.09658
37.09694
37.0978
37.09915
37.10104
37.10353
37.10671
37.11074
37.11582
37.12213
37.12867
37.13203
37.13575
37.16948
37.16532
37.16114
37.15518
37.14677
37.13989
37.13442
37.13006
37.12662
37.12395
37.12197
37.12062
37.11988
37.11973
37.12017
37.12122
37.12288
37.12519
37.12823
37.13211
37.137
37.14313
37.15078
37.15877
37.16358
37.1669
37.19736
37.19133
37.18484
37.1748
37.16663
37.16021
37.15511
37.15105
37.14791
37.14558
37.14399
37.14311
37.14294
37.14346
37.14469
37.14665
37.14938
37.15296
37.15752
37.16323
37.17046
37.17962
37.18878
37.19413
37.20163
37.22646
37.22186
37.21471
37.20268
37.19325
37.18594
37.18011
37.17547
37.17186
37.16919
37.16737
37.16637
37.16617
37.16677
37.16817
37.17041
37.17354
37.17765
37.18287
37.18938
37.19764
37.20842
37.21934
37.22406
37.2282
37.25787
37.25332
37.24408
37.23009
37.21963
37.21155
37.20504
37.19982
37.19576
37.19275
37.19071
37.1896
37.18937
37.19004
37.19162
37.19413
37.19765
37.20227
37.20812
37.21536
37.22448
37.23662
37.24979
37.25722
37.25913
37.29688
37.29266
37.28059
37.26526
37.25382
37.24485
37.2375
37.23157
37.22696
37.22354
37.22124
37.21998
37.21973
37.22048
37.22226
37.22511
37.22911
37.23437
37.24099
37.2491
37.25914
37.27242
37.28776
37.29529
37.34569
37.33566
37.32286
37.31088
37.30066
37.29212
37.28517
37.27972
37.27569
37.27298
37.27151
37.27121
37.27209
37.27417
37.27753
37.28226
37.28845
37.29619
37.30555
37.31666
37.32945
37.34154
37.34865
37.39253
37.38036
37.36656
37.3549
37.34539
37.33764
37.3315
37.32694
37.32388
37.32222
37.3219
37.32288
37.32523
37.32903
37.33437
37.34131
37.3499
37.36045
37.37316
37.38828
37.39963
37.43706
37.42056
37.40746
37.3972
37.38882
37.38213
37.37714
37.37379
37.37198
37.37163
37.3727
37.37527
37.37943
37.38526
37.3928
37.40205
37.41359
37.42795
37.44157
37.48496
37.47132
37.45831
37.44746
37.4385
37.43144
37.42616
37.42259
37.42068
37.4203
37.42143
37.42417
37.42858
37.43474
37.44274
37.45265
37.46445
37.47789
37.51854
37.50799
37.49621
37.48674
37.47939
37.47387
37.47013
37.46811
37.46772
37.46891
37.47178
37.47641
37.48282
37.4912
37.50179
37.51603
37.52386
37.55438
37.544
37.53404
37.52619
37.52032
37.51635
37.51416
37.51372
37.51503
37.51811
37.523
37.52986
37.53881
37.55059
37.56031
37.58731
37.57848
37.57136
37.5657
37.56153
37.55895
37.55844
37.55998
37.56347
37.56826
37.57496
37.58344
37.59031
37.61814
37.61258
37.60902
37.60493
37.60197
37.60146
37.60325
37.60745
37.61141
37.61519
37.64531
37.63996
37.63885
37.63854
37.63958
37.64309
37.00829
37.00822
37.00777
37.00739
37.00707
37.00668
37.00636
37.00609
37.00588
37.00572
37.00559
37.00549
37.00543
37.0054
37.00539
37.00541
37.00546
37.00554
37.00565
37.00579
37.00598
37.00622
37.00651
37.00687
37.00726
37.00756
37.00801
37.00816
37.01
37.03883
37.04034
37.03849
37.037
37.03556
37.03362
37.03199
37.03067
37.02963
37.02881
37.02817
37.0277
37.02738
37.02721
37.02717
37.02728
37.02753
37.02792
37.02847
37.02919
37.03012
37.0313
37.03277
37.03455
37.0364
37.03769
37.03939
37.04145
37.03562
37.07393
37.07139
37.0688
37.06657
37.06422
37.06076
37.05785
37.05549
37.05362
37.05215
37.05102
37.05018
37.0496
37.04929
37.04923
37.04941
37.04986
37.05056
37.05155
37.05284
37.0545
37.05661
37.05924
37.06243
37.06562
37.06762
37.07008
37.07261
37.10919
37.10292
37.09912
37.09623
37.09299
37.08801
37.08385
37.08048
37.07781
37.0757
37.07407
37.07286
37.07204
37.07158
37.07149
37.07176
37.0724
37.07341
37.07483
37.07669
37.07907
37.08207
37.08582
37.09041
37.09496
37.0976
37.10086
37.10564
37.13683
37.13366
37.12954
37.12607
37.12179
37.11528
37.1099
37.10558
37.10212
37.09939
37.09727
37.0957
37.09464
37.09405
37.09393
37.09428
37.09511
37.09642
37.09826
37.10067
37.10375
37.10762
37.11245
37.11839
37.12442
37.12776
37.13149
37.13595
37.16995
37.16462
37.16043
37.15599
37.15052
37.14252
37.13597
37.13072
37.12651
37.12317
37.12058
37.11866
37.11735
37.11664
37.11649
37.11692
37.11793
37.11954
37.12179
37.12474
37.1285
37.1332
37.13907
37.14634
37.15385
37.15821
37.16258
37.16726
37.20188
37.19789
37.19096
37.18555
37.1792
37.16973
37.16202
37.15587
37.15094
37.14701
37.14396
37.14169
37.14015
37.1393
37.13914
37.13964
37.14083
37.14273
37.14538
37.14886
37.15327
37.15878
37.16566
37.17425
37.18306
37.18817
37.19398
37.19909
37.22589
37.22044
37.21494
37.20777
37.19679
37.18797
37.18098
37.17535
37.17085
37.16735
37.16474
37.16298
37.16201
37.16182
37.1624
37.16376
37.16594
37.16898
37.17297
37.17801
37.18428
37.19212
37.20202
37.2122
37.21768
37.22319
37.22786
37.25734
37.25183
37.24455
37.23596
37.22354
37.21376
37.20599
37.1997
37.19465
37.19071
37.18778
37.1858
37.18472
37.1845
37.18515
37.18668
37.18913
37.19254
37.19703
37.20268
37.20967
37.21836
37.2294
37.24118
37.24808
37.25617
37.2607
37.29883
37.2918
37.282
37.2718
37.25805
37.24726
37.23857
37.23147
37.22573
37.22126
37.21793
37.21569
37.21446
37.21421
37.21495
37.21668
37.21946
37.22335
37.22844
37.23484
37.24269
37.25235
37.2645
37.27791
37.28653
37.29448
37.34848
37.33933
37.32893
37.31527
37.30339
37.29337
37.28507
37.27834
37.27306
37.26913
37.26648
37.26504
37.26475
37.26561
37.26765
37.27093
37.27552
37.28152
37.28901
37.29815
37.3091
37.32187
37.33506
37.34429
37.35337
37.39556
37.38578
37.37164
37.35818
37.34683
37.33753
37.32998
37.32402
37.31958
37.31658
37.31494
37.31462
37.31559
37.3179
37.32161
37.32681
37.33355
37.34194
37.35223
37.36466
37.37884
37.39274
37.40022
37.44033
37.42609
37.41109
37.39873
37.38866
37.38045
37.37395
37.36909
37.3658
37.36401
37.36365
37.36472
37.36725
37.37132
37.377
37.38434
37.39344
37.40461
37.4182
37.43495
37.4479
37.47748
37.46145
37.44904
37.43839
37.42963
37.4227
37.41751
37.41399
37.41207
37.41169
37.41284
37.41555
37.41989
37.42594
37.43378
37.44348
37.45505
37.46824
37.48662
37.52203
37.51039
37.49806
37.48679
37.47752
37.47022
37.46475
37.46102
37.45899
37.45859
37.4598
37.46267
37.46726
37.47363
37.4819
37.49218
37.50445
37.51705
37.55873
37.54538
37.53386
37.5242
37.5165
37.51076
37.50683
37.50465
37.50422
37.50552
37.50858
37.51339
37.52011
37.5288
37.53943
37.55226
37.56494
37.58875
37.57815
37.56895
37.56117
37.55546
37.5514
37.54901
37.54854
37.54996
37.55325
37.55805
37.56486
37.57345
37.58329
37.59342
37.62212
37.61088
37.60351
37.59844
37.59416
37.59166
37.59124
37.59262
37.59622
37.60077
37.60691
37.6148
37.64635
37.64074
37.63421
37.63173
37.63155
37.63245
37.63821
37.64318
37.6522
37.66683
37.66581
37.00912
37.00822
37.0079
37.00749
37.00716
37.00686
37.00648
37.00617
37.00592
37.00572
37.00556
37.00544
37.00534
37.00528
37.00525
37.00524
37.00526
37.00531
37.00539
37.00549
37.00563
37.00581
37.00604
37.00632
37.00666
37.00703
37.00731
37.00769
37.00807
37.00835
37.03867
37.04034
37.03894
37.03724
37.03586
37.03447
37.03261
37.03107
37.02982
37.02882
37.02802
37.02741
37.02695
37.02665
37.02648
37.02644
37.02654
37.02678
37.02716
37.0277
37.0284
37.02929
37.03042
37.03181
37.03349
37.03529
37.03651
37.03807
37.03978
37.03997
37.07435
37.07139
37.06897
37.06661
37.06454
37.06225
37.05896
37.05621
37.05397
37.05217
37.05075
37.04965
37.04883
37.04828
37.04797
37.04791
37.04809
37.04852
37.04921
37.05016
37.05142
37.05302
37.05503
37.05752
37.06053
37.06363
37.06553
37.06777
37.07019
37.07277
37.10955
37.10292
37.09907
37.09597
37.09329
37.09015
37.08544
37.08151
37.0783
37.07573
37.07369
37.0721
37.07093
37.07013
37.06969
37.06961
37.06987
37.07048
37.07147
37.07284
37.07465
37.07694
37.07982
37.08338
37.0877
37.09206
37.09459
37.09746
37.10085
37.10569
37.13655
37.13365
37.12932
37.12558
37.12222
37.11813
37.11199
37.10689
37.10276
37.09943
37.09678
37.09473
37.0932
37.09216
37.0916
37.09148
37.09182
37.09262
37.0939
37.09568
37.09803
37.101
37.10472
37.10931
37.11493
37.12063
37.12386
37.12739
37.13142
37.13585
37.16948
37.16462
37.15993
37.15548
37.15124
37.14611
37.13855
37.13233
37.12729
37.12323
37.11999
37.11747
37.1156
37.11433
37.11364
37.1135
37.11392
37.1149
37.11646
37.11865
37.12151
37.12514
37.12967
37.13528
37.14215
37.14923
37.15332
37.15768
37.16226
37.16703
37.19788
37.19093
37.18518
37.18006
37.17398
37.16505
37.15775
37.15184
37.14707
37.14326
37.1403
37.13809
37.1366
37.13577
37.13561
37.1361
37.13726
37.1391
37.14168
37.14506
37.14933
37.15464
37.1612
37.1693
37.17768
37.18256
37.18795
37.19415
37.20024
37.22589
37.22017
37.21428
37.20862
37.20167
37.19142
37.1831
37.17637
37.17093
37.16656
37.16316
37.16063
37.15891
37.15797
37.15779
37.15835
37.15967
37.16179
37.16475
37.16862
37.17351
37.17956
37.18704
37.1963
37.20591
37.21141
37.21721
37.22312
37.22785
37.25734
37.25075
37.24368
37.23702
37.22906
37.21759
37.20833
37.20084
37.19475
37.18985
37.18602
37.18318
37.18125
37.18019
37.17998
37.18061
37.1821
37.18448
37.18781
37.19216
37.19763
37.20439
37.21271
37.22302
37.2339
37.24029
37.2472
37.2542
37.25871
37.29883
37.28991
37.28131
37.27341
37.26425
37.25148
37.24117
37.23275
37.22586
37.2203
37.21595
37.21272
37.21053
37.20933
37.20909
37.20981
37.2115
37.2142
37.21798
37.22292
37.22913
37.23675
37.24606
37.2575
37.26978
37.27727
37.28544
37.29478
37.34919
37.34066
37.33184
37.32184
37.30802
37.29637
37.28658
37.27851
37.27197
37.26683
37.263
37.26041
37.25899
37.25871
37.25956
37.26156
37.26476
37.26923
37.27506
37.28234
37.29125
37.30195
37.31461
37.32785
37.33611
37.34555
37.35374
37.39603
37.38843
37.37805
37.36331
37.35026
37.33924
37.33017
37.32281
37.317
37.31266
37.30972
37.30812
37.3078
37.30876
37.31102
37.31465
37.31972
37.32629
37.33448
37.34449
37.35654
37.37048
37.38436
37.39279
37.40063
37.44317
37.43305
37.41679
37.40241
37.39049
37.38064
37.37261
37.36626
37.3615
37.35827
37.3565
37.35615
37.3572
37.3597
37.36368
37.36923
37.37641
37.38532
37.39617
37.40925
37.42491
37.4404
37.44715
37.48479
37.46726
37.45252
37.44027
37.42984
37.42126
37.41445
37.40935
37.40587
37.40397
37.4036
37.40473
37.40741
37.41169
37.41764
37.42533
37.43483
37.44618
37.45943
37.47708
37.4964
37.51518
37.50161
37.48878
37.47778
37.4687
37.4615
37.4561
37.45241
37.45039
37.44999
37.4512
37.45405
37.45858
37.46487
37.473
37.48304
37.495
37.50899
37.52124
37.56556
37.55191
37.53593
37.52433
37.51487
37.50732
37.50166
37.49779
37.49564
37.49521
37.4965
37.49951
37.50426
37.51086
37.51937
37.52981
37.54285
37.55856
37.594
37.58311
37.56939
37.55952
37.55169
37.54591
37.54188
37.53961
37.53916
37.54051
37.54369
37.54855
37.55535
37.56423
37.57508
37.58743
37.63077
37.61421
37.6026
37.59467
37.58877
37.5844
37.582
37.58157
37.58292