/*--------------------------------*- C++ -*----------------------------------*\
| =========                 |                                                 |
| \\      /  F ield         | OpenFOAM: The Open Source CFD Toolbox           |
|  \\    /   O peration     | Version:  5.x                                   |
|   \\  /    A nd           | Web:      www.OpenFOAM.org                      |
|    \\/     M anipulation  |                                                 |
\*---------------------------------------------------------------------------*/
FoamFile
{
    version     2.0;
    format      ascii;
    class       volScalarField;
    location    "24/muscle";
    object      T;
}
// * * * * * * * * * * * * * * * * * * * * * * * * * * * * * * * * * * * * * //

dimensions      [0 0 0 1 0 0 0];

internalField   nonuniform List<scalar> 
45560
(
37.00253
37.00255
37.00263
37.01124
37.01137
37.01115
37.0186
37.01903
37.02546
37.00249
37.00255
37.00261
37.00264
37.00262
37.00254
37.00268
37.01125
37.01175
37.01212
37.01221
37.01213
37.01181
37.01889
37.01992
37.02044
37.02069
37.0207
37.02002
37.02633
37.02716
37.02781
37.02811
37.02817
37.02815
37.03286
37.03368
37.0342
37.03453
37.03512
37.03554
37.04063
37.04131
37.04179
37.04217
37.04147
37.04897
37.04972
37.04937
37.00242
37.00271
37.00273
37.00278
37.00281
37.00281
37.0028
37.0027
37.00267
37.01106
37.01217
37.01259
37.01291
37.01304
37.01304
37.01284
37.0124
37.01157
37.01895
37.02038
37.02131
37.02184
37.0221
37.0221
37.02171
37.0213
37.01928
37.02599
37.02768
37.02895
37.02964
37.03002
37.03006
37.02969
37.02842
37.0321
37.03408
37.03564
37.03644
37.03692
37.03707
37.03676
37.03495
37.03816
37.04043
37.04255
37.04369
37.04436
37.04441
37.0437
37.04256
37.04752
37.05002
37.05182
37.05279
37.05257
37.05169
37.05455
37.05659
37.05775
37.05855
37.05725
37.00248
37.00265
37.00281
37.00287
37.00292
37.00295
37.00296
37.00295
37.00289
37.00272
37.0111
37.01226
37.01292
37.0133
37.01358
37.01373
37.01375
37.01363
37.01336
37.01298
37.01891
37.02065
37.02168
37.02245
37.02298
37.02325
37.02328
37.02302
37.02254
37.02122
37.02579
37.02764
37.02927
37.03047
37.03122
37.03163
37.03167
37.0313
37.03037
37.02902
37.03198
37.03384
37.03596
37.03749
37.03844
37.03897
37.03906
37.03861
37.03739
37.03587
37.04067
37.04293
37.0448
37.04605
37.04676
37.04684
37.04628
37.04513
37.04332
37.04814
37.05069
37.05321
37.05496
37.05593
37.05601
37.05528
37.05401
37.05231
37.05629
37.05894
37.06091
37.06209
37.06254
37.06168
37.06125
37.06321
37.06468
37.06605
37.06714
37.06723
37.00248
37.00259
37.0028
37.00291
37.00298
37.00304
37.00307
37.00308
37.00307
37.00302
37.00291
37.00268
37.01085
37.01192
37.01292
37.01349
37.01387
37.01415
37.01431
37.01435
37.01426
37.01402
37.01349
37.01238
37.01769
37.02015
37.02165
37.02271
37.02346
37.02398
37.02428
37.02433
37.02413
37.02364
37.02269
37.0212
37.02726
37.02919
37.03074
37.03189
37.03266
37.03309
37.03316
37.03284
37.03206
37.03081
37.02898
37.03367
37.03585
37.03779
37.03928
37.04029
37.04086
37.04096
37.04056
37.03958
37.03817
37.03615
37.03986
37.04287
37.04522
37.04706
37.04836
37.0491
37.04924
37.04877
37.04767
37.04589
37.04399
37.04696
37.05081
37.05387
37.0563
37.05805
37.05907
37.0593
37.05872
37.05741
37.05482
37.05602
37.05989
37.06284
37.06499
37.06629
37.06672
37.06611
37.06455
37.06114
37.05896
37.06342
37.06712
37.06976
37.07139
37.07203
37.07111
37.06904
37.06905
37.07259
37.07443
37.07508
37.07411
37.00259
37.00253
37.00275
37.0029
37.00301
37.00308
37.00314
37.00317
37.00318
37.00317
37.00313
37.00304
37.0029
37.00268
37.01088
37.01193
37.01269
37.01344
37.01398
37.01438
37.01466
37.01483
37.01488
37.01481
37.01459
37.01415
37.01349
37.0123
37.01787
37.01945
37.02137
37.02262
37.02363
37.02438
37.02491
37.02522
37.0253
37.02514
37.0247
37.02393
37.02289
37.02108
37.02655
37.0288
37.03063
37.03209
37.03321
37.03399
37.03445
37.03456
37.03431
37.03364
37.03254
37.03091
37.02925
37.03308
37.03542
37.03767
37.03954
37.041
37.04203
37.04263
37.04279
37.04246
37.04162
37.04028
37.0384
37.03751
37.03971
37.04219
37.04506
37.04741
37.04925
37.05058
37.05137
37.05158
37.0512
37.05019
37.04853
37.0463
37.04977
37.05371
37.05682
37.05927
37.06106
37.06214
37.06248
37.06203
37.06079
37.05856
37.05545
37.05538
37.05963
37.06356
37.0666
37.06887
37.07028
37.07078
37.07031
37.06883
37.06626
37.06434
37.06316
37.06793
37.0716
37.07447
37.07627
37.07691
37.07635
37.07453
37.07191
37.06549
37.07048
37.07445
37.07818
37.08043
37.08108
37.08057
37.07937
37.07648
37.0809
37.08357
37.08437
37.08415
37.00263
37.00252
37.00269
37.00287
37.00299
37.0031
37.00317
37.00323
37.00327
37.00328
37.00327
37.00323
37.00317
37.00306
37.00286
37.00278
37.01102
37.01151
37.01241
37.01328
37.01392
37.01444
37.01484
37.01513
37.01532
37.01538
37.01532
37.01512
37.01477
37.01423
37.01329
37.01266
37.01833
37.01949
37.02081
37.02234
37.02352
37.02448
37.02523
37.02577
37.0261
37.02621
37.02609
37.0257
37.02504
37.02407
37.02274
37.02144
37.02494
37.02643
37.0281
37.03021
37.03194
37.03335
37.03445
37.03525
37.03573
37.03589
37.0357
37.03512
37.03415
37.03273
37.03097
37.02972
37.03274
37.03465
37.03714
37.03934
37.04118
37.04262
37.04367
37.04432
37.04453
37.04428
37.04354
37.04231
37.04061
37.0386
37.03756
37.0393
37.04135
37.04436
37.04715
37.04949
37.05134
37.0527
37.05354
37.05383
37.05354
37.05263
37.05108
37.049
37.04663
37.04532
37.04856
37.0527
37.05647
37.05961
37.0621
37.06394
37.06511
37.06554
37.0652
37.06405
37.062
37.05905
37.05552
37.05267
37.05846
37.06305
37.06703
37.07018
37.07256
37.07409
37.0747
37.07433
37.07294
37.0705
37.06696
37.06162
37.06705
37.07207
37.07596
37.07895
37.0809
37.08169
37.0813
37.07958
37.07657
37.07226
37.06907
37.07497
37.07973
37.08341
37.08586
37.08688
37.08648
37.08425
37.08046
37.07598
37.08164
37.08607
37.08903
37.09077
37.08973
37.08606
37.0829
37.08625
37.08936
37.09357
37.00263
37.00253
37.00263
37.00278
37.00295
37.00308
37.00318
37.00326
37.00332
37.00336
37.00337
37.00337
37.00333
37.00327
37.00317
37.003
37.00289
37.00282
37.01102
37.01154
37.01214
37.01288
37.01372
37.01435
37.01487
37.01528
37.01558
37.01578
37.01586
37.01581
37.01563
37.01531
37.0148
37.014
37.01343
37.01287
37.01833
37.01947
37.02058
37.02173
37.02318
37.02433
37.02527
37.02603
37.02658
37.02694
37.02708
37.02699
37.02665
37.02605
37.02513
37.02391
37.02295
37.02183
37.02494
37.02676
37.02801
37.02943
37.03145
37.03313
37.03451
37.03562
37.03643
37.03695
37.03715
37.03702
37.03652
37.03563
37.03432
37.03273
37.03175
37.03015
37.03276
37.03433
37.03616
37.03871
37.04089
37.0427
37.04416
37.04523
37.04592
37.04619
37.04602
37.04537
37.04422
37.04256
37.04058
37.03926
37.03841
37.03982
37.04115
37.04319
37.04634
37.04911
37.05145
37.05332
37.05472
37.05562
37.05599
37.05578
37.05496
37.05351
37.05146
37.04919
37.04806
37.04759
37.04828
37.05106
37.05533
37.05908
37.06224
37.06479
37.0667
37.06795
37.06849
37.06826
37.0672
37.06528
37.06248
37.05937
37.05784
37.05252
37.05625
37.06163
37.06634
37.07036
37.07361
37.07609
37.07773
37.07847
37.07824
37.07698
37.07464
37.0711
37.06718
37.05929
37.06547
37.07118
37.07613
37.08016
37.08327
37.08537
37.08635
37.08614
37.08465
37.08194
37.07782
37.06745
37.07387
37.07984
37.08476
37.08854
37.09116
37.09248
37.09229
37.09055
37.08751
37.07493
37.08166
37.08777
37.0921
37.09528
37.09724
37.09698
37.09467
37.09327
37.08367
37.09011
37.09362
37.09777
37.10105
37.10161
37.00259
37.00252
37.00263
37.00274
37.00287
37.00303
37.00315
37.00326
37.00334
37.0034
37.00345
37.00346
37.00346
37.00343
37.00337
37.00327
37.00313
37.00303
37.00293
37.00282
37.01088
37.01151
37.01214
37.01269
37.01331
37.01412
37.01475
37.01527
37.01569
37.01601
37.01622
37.01631
37.01628
37.01612
37.01581
37.01532
37.01464
37.01417
37.01361
37.0129
37.01787
37.01949
37.02058
37.02149
37.02252
37.02392
37.02507
37.02601
37.02678
37.02736
37.02774
37.0279
37.02785
37.02754
37.02698
37.02611
37.02499
37.02423
37.02331
37.02193
37.02644
37.02801
37.0292
37.03057
37.03256
37.03422
37.0356
37.03672
37.03756
37.03811
37.03836
37.03827
37.03783
37.037
37.03576
37.03425
37.03329
37.0321
37.03047
37.03275
37.03433
37.03583
37.03759
37.04015
37.04231
37.04413
37.0456
37.04672
37.04745
37.04778
37.04767
37.0471
37.04602
37.04441
37.04251
37.04129
37.03992
37.03892
37.03934
37.04116
37.04285
37.04494
37.04815
37.05094
37.05329
37.0552
37.05665
37.05761
37.05806
37.05793
37.0572
37.05583
37.0538
37.05151
37.05017
37.04872
37.04827
37.05062
37.05344
37.05776
37.06154
37.06474
37.06734
37.06934
37.07068
37.07132
37.0712
37.07025
37.06843
37.06569
37.06259
37.06065
37.05814
37.05252
37.05558
37.0592
37.06465
37.06944
37.07353
37.07688
37.07947
37.08124
37.08212
37.08203
37.0809
37.07866
37.07522
37.07129
37.06884
37.05853
37.06265
37.06908
37.07498
37.08001
37.08418
37.08743
37.08969
37.09086
37.09083
37.08954
37.08692
37.08276
37.07767
37.07123
37.0784
37.08447
37.08956
37.09354
37.09637
37.09791
37.09796
37.09653
37.09359
37.08893
37.07106
37.07958
37.08707
37.0933
37.09802
37.10149
37.10361
37.1037
37.1021
37.09888
37.07937
37.08822
37.09571
37.101
37.10522
37.10828
37.10808
37.10644
37.09716
37.10268
37.1076
37.11256
37.00248
37.00253
37.00269
37.00278
37.00287
37.00297
37.00312
37.00325
37.00336
37.00344
37.00351
37.00355
37.00358
37.00358
37.00355
37.00349
37.0034
37.00328
37.00321
37.00313
37.00302
37.00279
37.01085
37.01193
37.01241
37.01288
37.01332
37.01384
37.0146
37.01524
37.01577
37.0162
37.01654
37.01677
37.01688
37.01687
37.01673
37.01643
37.01597
37.0154
37.01505
37.01464
37.01419
37.01298
37.0177
37.01946
37.02081
37.02173
37.02252
37.02345
37.02481
37.02596
37.02692
37.02771
37.02832
37.02873
37.02894
37.02892
37.02866
37.02813
37.0273
37.0263
37.02566
37.0249
37.02389
37.02248
37.02655
37.0281
37.02943
37.03058
37.03191
37.03386
37.03552
37.03693
37.03807
37.03896
37.03957
37.03987
37.03984
37.03946
37.0387
37.03751
37.03608
37.03516
37.03405
37.03267
37.03135
37.03309
37.03465
37.03616
37.0376
37.03931
37.04186
37.04403
37.04588
37.04739
37.04856
37.04937
37.04977
37.04975
37.04925
37.04825
37.0467
37.04486
37.04371
37.04241
37.04099
37.04005
37.03973
37.04135
37.04319
37.04494
37.04709
37.05035
37.05317
37.05556
37.05753
37.05906
37.06011
37.06065
37.06064
37.06001
37.05873
37.05674
37.05443
37.05302
37.05145
37.04982
37.04856
37.05106
37.05344
37.05632
37.06072
37.06455
37.06782
37.07053
37.07264
37.07411
37.0749
37.07492
37.0741
37.07239
37.06973
37.06659
37.06467
37.06251
37.06032
37.05267
37.05625
37.05919
37.06283
37.06838
37.07326
37.07746
37.08096
37.08371
37.08566
37.08673
37.08682
37.08586
37.08375
37.08041
37.07645
37.07403
37.07112
37.05929
37.06265
37.06692
37.07363
37.07964
37.08484
37.08921
37.09268
37.09518
37.09659
37.0968
37.09572
37.09325
37.08922
37.08441
37.08182
37.06951
37.07671
37.08394
37.09023
37.09559
37.09987
37.10301
37.10486
37.10522
37.10406
37.1013
37.09668
37.09208
37.0783
37.08634
37.09388
37.10037
37.10557
37.10946
37.11185
37.11239
37.11122
37.10846
37.10345
37.08747
37.09599
37.10385
37.11
37.11479
37.11787
37.11858
37.11752
37.11575
37.09737
37.10676
37.11347
37.11952
37.12315
37.12512
37.12445
37.11484
37.12515
37.00248
37.00259
37.00275
37.00287
37.00295
37.00303
37.00312
37.00327
37.0034
37.00351
37.0036
37.00368
37.00373
37.00376
37.00377
37.00374
37.00369
37.00361
37.00351
37.00345
37.00338
37.00329
37.00314
37.00293
37.0031
37.0111
37.01192
37.01269
37.01328
37.01372
37.01412
37.0146
37.01535
37.01599
37.01655
37.01702
37.01738
37.01765
37.0178
37.01783
37.01772
37.01746
37.01703
37.01652
37.01621
37.01585
37.01539
37.01468
37.01383
37.01233
37.01891
37.02015
37.02137
37.02234
37.02318
37.02392
37.02481
37.02616
37.02733
37.02834
37.02918
37.02985
37.03033
37.03061
37.03066
37.03046
37.02998
37.02921
37.02828
37.02769
37.027
37.02617
37.02512
37.02374
37.02579
37.02727
37.0288
37.03021
37.03145
37.03256
37.03386
37.03582
37.03753
37.03899
37.04021
37.04119
37.0419
37.0423
37.04238
37.04209
37.0414
37.04028
37.03892
37.03804
37.03701
37.03576
37.03429
37.03271
37.03198
37.03368
37.03542
37.03714
37.03871
37.04015
37.04186
37.04443
37.04667
37.0486
37.05022
37.05151
37.05244
37.05299
37.05309
37.05272
37.05182
37.05035
37.04857
37.04743
37.04611
37.04458
37.04288
37.04086
37.03986
37.04219
37.04436
37.04634
37.04815
37.05035
37.05368
37.05658
37.05909
37.0612
37.06289
37.06412
37.06485
37.065
37.06454
37.06339
37.06149
37.05919
37.05775
37.05609
37.05416
37.05197
37.04984
37.04696
37.04977
37.0527
37.05533
37.05776
37.06072
37.06524
37.06921
37.07265
37.07556
37.07791
37.07964
37.08068
37.08095
37.08035
37.07882
37.07628
37.07317
37.07122
37.06899
37.06646
37.0637
37.05538
37.05846
37.06163
37.06465
37.06838
37.07412
37.07921
37.08366
37.08745
37.09053
37.09283
37.09424
37.09466
37.09398
37.09209
37.0889
37.08498
37.08254
37.07982
37.07687
37.07447
37.06162
37.06547
37.06908
37.07363
37.08065
37.08693
37.09249
37.09726
37.10118
37.10414
37.10601
37.10665
37.10592
37.10369
37.09984
37.09507
37.09204
37.08862
37.08418
37.06745
37.07123
37.07671
37.08507
37.09266
37.09947
37.10536
37.11023
37.11397
37.1164
37.11733
37.11659
37.11403
37.1095
37.10396
37.10053
37.09718
37.07105
37.0783
37.08769
37.0966
37.10485
37.11202
37.11801
37.12268
37.12578
37.12708
37.12639
37.12347
37.11827
37.11288
37.08847
37.09882
37.10888
37.11749
37.12477
37.13056
37.13444
37.13619
37.13562
37.13201
37.12527
37.09973
37.11177
37.12188
37.13074
37.13794
37.14259
37.14481
37.14441
37.14
37.11436
37.12459
37.13552
37.14414
37.1494
37.15213
37.15434
37.12581
37.13785
37.14682
37.15312
37.15615
37.00242
37.00265
37.0028
37.0029
37.00299
37.00308
37.00316
37.00325
37.0034
37.00353
37.00365
37.00375
37.00383
37.00389
37.00393
37.00395
37.00393
37.00388
37.0038
37.00371
37.00365
37.00358
37.0035
37.00341
37.0033
37.00308
37.00309
37.01106
37.01226
37.01292
37.01344
37.01392
37.01435
37.01475
37.01524
37.01599
37.01667
37.01725
37.01775
37.01816
37.01847
37.01866
37.01873
37.01865
37.01841
37.01801
37.01751
37.01721
37.01685
37.01644
37.01596
37.01544
37.01438
37.01321
37.01896
37.02065
37.02165
37.02262
37.02352
37.02433
37.02507
37.02596
37.02733
37.02855
37.02961
37.03052
37.03126
37.03182
37.03217
37.03229
37.03214
37.03172
37.03098
37.03008
37.02951
37.02884
37.02806
37.02716
37.02619
37.02524
37.02276
37.02599
37.02764
37.02919
37.03063
37.03194
37.03313
37.03422
37.03552
37.03753
37.03929
37.04084
37.04216
37.04324
37.04406
37.04457
37.04475
37.04454
37.04393
37.04286
37.04154
37.04069
37.0397
37.03854
37.03721
37.03571
37.03395
37.0321
37.03384
37.03585
37.03767
37.03934
37.04089
37.04231
37.04403
37.04667
37.049
37.05104
37.05278
37.05422
37.0553
37.05599
37.05623
37.05597
37.05517
37.05377
37.05202
37.05091
37.04962
37.04814
37.04647
37.04454
37.04244
37.03816
37.04067
37.04287
37.04506
37.04715
37.04911
37.05094
37.05317
37.05658
37.05961
37.06227
37.06455
37.06643
37.06786
37.06877
37.06911
37.06879
37.06777
37.06596
37.06371
37.06228
37.06064
37.05879
37.05675
37.05462
37.0523
37.04815
37.05081
37.05371
37.05647
37.05908
37.06154
37.06455
37.06921
37.07335
37.07702
37.08019
37.08281
37.08482
37.08614
37.08665
37.08628
37.08492
37.08249
37.07944
37.07752
37.07533
37.07289
37.07016
37.06726
37.06442
37.05602
37.05963
37.06305
37.06634
37.06944
37.07326
37.07921
37.08454
37.0893
37.09345
37.09691
37.0996
37.10139
37.10216
37.10176
37.10009
37.09705
37.09321
37.09078
37.088
37.08491
37.08152
37.07804
37.05896
37.06316
37.06705
37.07118
37.07498
37.07964
37.08693
37.09356
37.09954
37.10479
37.10922
37.1127
37.11507
37.11616
37.1158
37.11384
37.11019
37.10557
37.10263
37.09917
37.09511
37.09111
37.06549
37.06907
37.07387
37.07839
37.08394
37.09266
37.10072
37.10807
37.11458
37.12013
37.12456
37.12765
37.12918
37.12892
37.1267
37.12242
37.11696
37.1135
37.10933
37.10491
37.07493
37.07958
37.08634
37.0966
37.10627
37.1152
37.12317
37.13003
37.1356
37.13958
37.14169
37.14162
37.13912
37.13416
37.12779
37.12369
37.11804
37.07937
37.08747
37.09882
37.11045
37.1212
37.13083
37.13923
37.14615
37.15125
37.15412
37.15434
37.15152
37.14557
37.13905
37.09973
37.11359
37.12623
37.13778
37.14795
37.15649
37.16301
37.16691
37.16753
37.16419
37.15549
37.11592
37.12939
37.14352
37.15536
37.1655
37.17377
37.17892
37.17946
37.17708
37.12953
37.14725
37.1598
37.17088
37.18076
37.18702
37.18255
37.15324
37.16451
37.17667
37.18861
37.19616
37.00249
37.00271
37.00281
37.00291
37.00301
37.0031
37.00318
37.00326
37.00336
37.00351
37.00365
37.00378
37.00388
37.00398
37.00405
37.00409
37.00411
37.0041
37.00406
37.00398
37.00389
37.00383
37.00376
37.00368
37.0036
37.00351
37.0034
37.00323
37.01125
37.01217
37.01292
37.01349
37.01398
37.01444
37.01487
37.01527
37.01577
37.01655
37.01725
37.01788
37.01842
37.01888
37.01923
37.01946
37.01956
37.01951
37.0193
37.01891
37.01842
37.01812
37.01777
37.01737
37.01694
37.01643
37.01575
37.01474
37.01889
37.02038
37.02168
37.02271
37.02363
37.02448
37.02527
37.02601
37.02692
37.02834
37.02961
37.03074
37.03173
37.03255
37.03319
37.03361
37.0338
37.03371
37.03333
37.03262
37.03173
37.03117
37.03052
37.02978
37.02894
37.028
37.02682
37.02507
37.02633
37.02768
37.02927
37.03074
37.03209
37.03335
37.03451
37.0356
37.03693
37.03899
37.04084
37.04248
37.04392
37.04512
37.04605
37.04668
37.04695
37.04683
37.04628
37.04525
37.04396
37.04312
37.04216
37.04107
37.03983
37.03844
37.03688
37.03516
37.03286
37.03408
37.03596
37.03779
37.03954
37.04118
37.0427
37.04413
37.04588
37.0486
37.05104
37.05321
37.05511
37.0567
37.05794
37.05877
37.05915
37.05901
37.05829
37.05694
37.05523
37.05414
37.05288
37.05144
37.04983
37.04807
37.04624
37.04445
37.04043
37.04293
37.04522
37.04741
37.04949
37.05145
37.05329
37.05556
37.05909
37.06227
37.0651
37.06758
37.06967
37.07131
37.07243
37.07294
37.07278
37.07186
37.07013
37.06792
37.0665
37.06488
37.06305
37.06102
37.05883
37.05643
37.05431
37.04752
37.05069
37.05387
37.05682
37.05961
37.06224
37.06474
37.06782
37.07265
37.07702
37.08094
37.0844
37.08733
37.08965
37.09126
37.09203
37.09187
37.09066
37.08833
37.08533
37.08341
37.08123
37.07877
37.07601
37.07288
37.06926
37.05629
37.05989
37.06356
37.06703
37.07036
37.07353
37.07746
37.08366
37.0893
37.09442
37.09897
37.10286
37.10597
37.10816
37.10928
37.10917
37.10771
37.10479
37.10099
37.09855
37.09577
37.09266
37.08924
37.08538
37.08179
37.06342
37.06793
37.07206
37.07613
37.08001
37.08484
37.09249
37.09954
37.10599
37.11177
37.11678
37.12083
37.12375
37.12532
37.12534
37.12366
37.12015
37.11554
37.11257
37.10916
37.10535
37.10119
37.0965
37.07048
37.07497
37.07984
37.08447
37.09023
37.09946
37.10807
37.11603
37.12325
37.12956
37.13476
37.13858
37.14074
37.141
37.13915
37.13506
37.12958
37.12606
37.12202
37.11755
37.11273
37.07598
37.08166
37.08707
37.09388
37.10485
37.1152
37.12489
37.13378
37.14166
37.14824
37.15318
37.15613
37.15675
37.15481
37.15017
37.14379
37.13955
37.1343
37.12988
37.08367
37.08822
37.09599
37.10888
37.1212
37.13287
37.14372
37.15345
37.16172
37.1681
37.17207
37.17317
37.17124
37.16606
37.1587
37.15521
37.09737
37.11177
37.12622
37.14023
37.15335
37.16526
37.17561
37.18385
37.18922
37.19082
37.18902
37.18237
37.11435
37.12933
37.14657
37.16183
37.1759
37.18845
37.19884
37.20629
37.20799
37.2056
37.12932
37.15098
37.16697
37.18239
37.19644
37.20835
37.21817
37.22003
37.21079
37.1565
37.17171
37.18864
37.20427
37.21752
37.23199
37.23558
37.17486
37.19352
37.21045
37.22375
37.24668
37.00255
37.00273
37.00287
37.00298
37.00308
37.00317
37.00326
37.00334
37.00344
37.0036
37.00375
37.00388
37.004
37.0041
37.00418
37.00424
37.00426
37.00426
37.00422
37.00414
37.00405
37.00399
37.00392
37.00384
37.00375
37.00365
37.00352
37.00334
37.00321
37.01175
37.01259
37.0133
37.01387
37.01438
37.01484
37.01528
37.01569
37.0162
37.01702
37.01775
37.01842
37.01901
37.01951
37.01991
37.02018
37.02032
37.0203
37.02011
37.01973
37.01924
37.01893
37.01858
37.01818
37.01773
37.01721
37.01655
37.0157
37.0148
37.01992
37.02131
37.02245
37.02346
37.02438
37.02523
37.02602
37.02678
37.02771
37.02918
37.03052
37.03173
37.03279
37.0337
37.03442
37.03492
37.03517
37.03514
37.03479
37.03411
37.03322
37.03266
37.03201
37.03128
37.03045
37.02951
37.02841
37.02711
37.02523
37.02716
37.02895
37.03047
37.03189
37.03321
37.03445
37.03562
37.03672
37.03807
37.04021
37.04216
37.04392
37.04547
37.0468
37.04785
37.04859
37.04896
37.04892
37.04842
37.04743
37.04614
37.04531
37.04436
37.04329
37.04208
37.04073
37.03925
37.03757
37.03546
37.03368
37.03564
37.03749
37.03928
37.041
37.04262
37.04416
37.0456
37.04739
37.05022
37.05278
37.05511
37.05716
37.05892
37.06032
37.06132
37.06182
37.06178
37.06114
37.05984
37.05814
37.05705
37.0558
37.05438
37.05279
37.05107
37.04923
37.04728
37.04593
37.04063
37.04255
37.0448
37.04706
37.04925
37.05134
37.05332
37.0552
37.05753
37.0612
37.06455
37.06758
37.07028
37.07259
37.07445
37.07577
37.07647
37.07644
37.07563
37.07395
37.07174
37.07033
37.0687
37.06687
37.06483
37.06262
37.06033
37.05818
37.05002
37.05321
37.0563
37.05927
37.0621
37.06479
37.06734
37.07053
37.07556
37.08018
37.0844
37.08817
37.09143
37.09407
37.09598
37.09701
37.09705
37.09598
37.09372
37.09072
37.08879
37.08657
37.08406
37.08125
37.07816
37.07489
37.07195
37.05455
37.05894
37.06284
37.0666
37.07018
37.07361
37.07688
37.08096
37.08745
37.09345
37.09897
37.10395
37.10829
37.11186
37.11447
37.11594
37.11612
37.11484
37.112
37.10818
37.10571
37.10287
37.09965
37.09605
37.09207
37.08754
37.06321
37.06712
37.0716
37.07596
37.08016
37.08418
37.08921
37.09726
37.10478
37.11177
37.11815
37.12377
37.12844
37.13193
37.13398
37.13438
37.13295
37.12953
37.12487
37.12184
37.11834
37.11435
37.10995
37.10548
37.10158
37.06905
37.07445
37.07972
37.08476
37.08956
37.09559
37.10536
37.11458
37.12325
37.13125
37.1384
37.14443
37.14901
37.15182
37.15258
37.15105
37.14707
37.14154
37.13793
37.13371
37.12878
37.12292
37.11716
37.07648
37.08164
37.08777
37.0933
37.10037
37.11202
37.12317
37.13378
37.14372
37.15271
37.1604
37.16637
37.17018
37.17145
37.16991
37.16538
37.15897
37.15484
37.15005
37.1441
37.0829
37.09011
37.09571
37.10385
37.11748
37.13083
37.14372
37.15594
37.16719
37.17696
37.18469
37.18979
37.19176
37.19028
37.1852
37.17803
37.17402
37.17035
37.09716
37.10676
37.12188
37.13778
37.15334
37.16829
37.18232
37.19471
37.20467
37.21146
37.21438
37.2129
37.20743
37.20145
37.12459
37.14352
37.16182
37.17949
37.19664
37.21198
37.22436
37.23296
37.23736
37.23503
37.22852
37.12582
37.14728
37.16696
37.18632
37.20592
37.22341
37.23741
37.24697
37.25323
37.24863
37.15329
37.17169
37.19279
37.2158
37.23584
37.25156
37.2608
37.27036
37.17486
37.19793
37.22651
37.24956
37.26788
37.272
37.23739
37.26476
37.28842
37.00253
37.00261
37.00278
37.00292
37.00304
37.00314
37.00323
37.00332
37.0034
37.00351
37.00368
37.00383
37.00398
37.0041
37.00421
37.0043
37.00436
37.0044
37.0044
37.00436
37.00429
37.00419
37.00413
37.00406
37.00398
37.00389
37.00378
37.00365
37.00348
37.0033
37.01124
37.01212
37.01291
37.01358
37.01415
37.01466
37.01513
37.01558
37.01601
37.01654
37.01738
37.01816
37.01887
37.01951
37.02006
37.0205
37.02082
37.02099
37.021
37.02082
37.02044
37.01995
37.01964
37.01928
37.01888
37.01842
37.01789
37.01725
37.01646
37.01545
37.0186
37.02044
37.02184
37.02298
37.02398
37.02491
37.02577
37.02658
37.02736
37.02832
37.02985
37.03126
37.03255
37.0337
37.03469
37.0355
37.03607
37.03639
37.0364
37.03608
37.03541
37.03452
37.03395
37.03329
37.03255
37.03172
37.03077
37.02968
37.02835
37.02633
37.02781
37.02964
37.03122
37.03266
37.03399
37.03525
37.03643
37.03756
37.03896
37.04119
37.04324
37.04512
37.0468
37.04825
37.04942
37.05027
37.05074
37.05077
37.05031
37.04934
37.04804
37.04721
37.04625
37.04516
37.04395
37.04259
37.04106
37.03926
37.03705
37.0342
37.03644
37.03844
37.04029
37.04203
37.04367
37.04523
37.04672
37.04856
37.05151
37.05422
37.05669
37.05892
37.06085
37.06242
37.06356
37.06419
37.06425
37.06366
37.06238
37.06067
37.05957
37.05831
37.05687
37.05527
37.05351
37.05157
37.04933
37.04711
37.04131
37.04369
37.04605
37.04836
37.05058
37.0527
37.05472
37.05665
37.05906
37.06289
37.06643
37.06967
37.07259
37.07514
37.07722
37.07874
37.0796
37.0797
37.07896
37.07731
37.07509
37.07366
37.07201
37.07015
37.06809
37.06585
37.06349
37.06114
37.05869
37.04897
37.05182
37.05496
37.05805
37.06106
37.06394
37.0667
37.06934
37.07264
37.07791
37.08281
37.08733
37.09143
37.09502
37.09799
37.10019
37.10147
37.1017
37.10075
37.09852
37.09549
37.09352
37.09125
37.08868
37.08582
37.08269
37.07942
37.07625
37.05659
37.06091
37.06499
37.06887
37.07256
37.07609
37.07947
37.08371
37.09053
37.09691
37.10286
37.10829
37.11311
37.11712
37.12015
37.12198
37.12242
37.1213
37.1185
37.11463
37.1121
37.10919
37.10587
37.10209
37.09781
37.09294
37.08799
37.06468
37.06976
37.07447
37.07895
37.08327
37.08743
37.09268
37.10118
37.10921
37.11677
37.12377
37.13003
37.13533
37.13939
37.14193
37.14269
37.14146
37.1381
37.13335
37.13025
37.12667
37.12261
37.11803
37.11279
37.10583
37.07259
37.07818
37.08341
37.08854
37.09354
37.09987
37.11023
37.12013
37.12956
37.1384
37.14642
37.1533
37.15867
37.16214
37.16338
37.16211
37.15818
37.15249
37.14876
37.14448
37.13967
37.13429
37.12772
37.0809
37.08607
37.0921
37.09802
37.10557
37.11801
37.13003
37.14166
37.15271
37.16288
37.17174
37.17877
37.18346
37.18536
37.18415
37.17961
37.1728
37.16829
37.16325
37.15842
37.15514
37.08625
37.09362
37.101
37.10999
37.12476
37.13923
37.15344
37.16719
37.18004
37.19139
37.20056
37.20684
37.20963
37.20853
37.20325
37.19491
37.18904
37.18182
37.10268
37.11346
37.13073
37.14794
37.16526
37.18232
37.19852
37.21306
37.22497
37.23332
37.23727
37.23628
37.23013
37.21942
37.21243
37.11484
37.13552
37.15536
37.1759
37.19664
37.21656
37.23466
37.24967
37.26036
37.26573
37.2645
37.25937
37.13785
37.1598
37.18239
37.20592
37.22845
37.24911
37.26634
37.27873
37.28546
37.28316
37.16451
37.18864
37.2158
37.24115
37.26473
37.28444
37.29888
37.30852
37.30334
37.19352
37.22651
37.25496
37.28179
37.30417
37.32133
37.33347
37.2374
37.27224
37.30171
37.3259
37.34702
37.00255
37.00264
37.00281
37.00295
37.00307
37.00317
37.00327
37.00336
37.00345
37.00355
37.00373
37.00389
37.00405
37.00418
37.0043
37.0044
37.00447
37.00451
37.00451
37.00448
37.0044
37.0043
37.00424
37.00417
37.00409
37.00399
37.00389
37.00375
37.00357
37.00339
37.01137
37.01221
37.01304
37.01373
37.01431
37.01483
37.01532
37.01578
37.01622
37.01677
37.01765
37.01847
37.01923
37.01991
37.0205
37.02099
37.02134
37.02154
37.02157
37.0214
37.02103
37.02053
37.02021
37.01984
37.01943
37.01896
37.01842
37.01777
37.01693
37.01589
37.01904
37.02069
37.0221
37.02325
37.02428
37.02522
37.0261
37.02694
37.02774
37.02873
37.03033
37.03182
37.03319
37.03442
37.0355
37.03638
37.03703
37.0374
37.03745
37.03715
37.03648
37.03557
37.03499
37.03432
37.03356
37.03271
37.03175
37.03064
37.02927
37.02738
37.02546
37.02811
37.03002
37.03163
37.03309
37.03445
37.03573
37.03695
37.03811
37.03956
37.0419
37.04406
37.04605
37.04785
37.04942
37.05072
37.05167
37.05222
37.05231
37.05188
37.05091
37.04959
37.04873
37.04775
37.04664
37.0454
37.04402
37.04247
37.04063
37.03782
37.03453
37.03692
37.03897
37.04086
37.04263
37.04432
37.04592
37.04745
37.04937
37.05244
37.0553
37.05794
37.06032
37.06242
37.06414
37.06542
37.06617
37.06631
37.06576
37.06448
37.06274
37.06161
37.06032
37.05885
37.05722
37.05542
37.05344
37.0511
37.04859
37.04179
37.04436
37.04676
37.0491
37.05137
37.05354
37.05562
37.05761
37.06011
37.06412
37.06786
37.07131
37.07445
37.07721
37.07951
37.08122
37.08223
37.08244
37.08176
37.08011
37.07785
37.07638
37.07469
37.07278
37.07066
37.06839
37.06603
37.06372
37.0607
37.04972
37.05279
37.05593
37.05907
37.06214
37.06511
37.06795
37.07068
37.07411
37.07964
37.08482
37.08965
37.09407
37.09799
37.10127
37.10375
37.10526
37.10565
37.10478
37.10256
37.09946
37.09743
37.0951
37.09245
37.08949
37.08629
37.083
37.07984
37.05775
37.06209
37.06629
37.07028
37.07409
37.07773
37.08124
37.08566
37.09283
37.0996
37.10597
37.11186
37.11712
37.12158
37.12501
37.12717
37.12784
37.12684
37.12404
37.12008
37.11747
37.11446
37.11104
37.10714
37.10268
37.09768
37.09318
37.06605
37.07139
37.07627
37.0809
37.08537
37.08969
37.09518
37.10414
37.1127
37.12083
37.12844
37.13533
37.14124
37.14586
37.14886
37.14996
37.1489
37.14553
37.14065
37.13745
37.13376
37.1296
37.12495
37.11973
37.11263
37.07443
37.08043
37.08586
37.09116
37.09636
37.10301
37.11397
37.12456
37.13476
37.14442
37.1533
37.16102
37.16716
37.17128
37.17298
37.17195
37.16802
37.16217
37.15831
37.15389
37.14896
37.14337
37.13636
37.08357
37.08903
37.09528
37.10149
37.10945
37.12267
37.13559
37.14823
37.1604
37.17174
37.18176
37.18986
37.19544
37.19797
37.19709
37.1926
37.18561
37.18094
37.17565
37.17069
37.16701
37.08936
37.09777
37.10522
37.11478
37.13055
37.14615
37.16172
37.17696
37.19139
37.20434
37.215
37.22251
37.22614
37.22552
37.22051
37.21219
37.20638
37.19818
37.1076
37.11951
37.13793
37.15649
37.17561
37.19471
37.21306
37.22978
37.24379
37.25384
37.25889
37.25856
37.25374
37.24371
37.24059
37.12515
37.14414
37.1655
37.18845
37.21197
37.23466
37.25567
37.27357
37.28659
37.29312
37.29257
37.29291
37.14681
37.17087
37.19644
37.22341
37.24911
37.27321
37.294
37.30927
37.3171
37.31484
37.31791
37.17667
37.20427
37.23584
37.26473
37.29237
37.31649
37.33464
37.34587
37.34034
37.21045
37.24956
37.28179
37.31353
37.34144
37.36326
37.37725
37.26476
37.30172
37.33751
37.37132
37.39592
37.00263
37.00262
37.00281
37.00296
37.00308
37.00318
37.00328
37.00337
37.00346
37.00358
37.00376
37.00393
37.00409
37.00424
37.00436
37.00447
37.00454
37.00459
37.0046
37.00457
37.00449
37.00439
37.00432
37.00425
37.00416
37.00407
37.00396
37.00382
37.00363
37.00338
37.01116
37.01213
37.01304
37.01375
37.01435
37.01488
37.01538
37.01586
37.01631
37.01688
37.0178
37.01866
37.01946
37.02018
37.02082
37.02134
37.02173
37.02196
37.022
37.02184
37.02146
37.02095
37.02062
37.02024
37.01981
37.01933
37.01877
37.01809
37.01721
37.01586
37.0207
37.0221
37.02328
37.02433
37.0253
37.02621
37.02708
37.0279
37.02894
37.03061
37.03217
37.03361
37.03492