/*--------------------------------*- C++ -*----------------------------------*\
| =========                 |                                                 |
| \\      /  F ield         | OpenFOAM: The Open Source CFD Toolbox           |
|  \\    /   O peration     | Version:  5.x                                   |
|   \\  /    A nd           | Web:      www.OpenFOAM.org                      |
|    \\/     M anipulation  |                                                 |
\*---------------------------------------------------------------------------*/
FoamFile
{
    version     2.0;
    format      ascii;
    class       volScalarField;
    location    "10/gland";
    object      T;
}
// * * * * * * * * * * * * * * * * * * * * * * * * * * * * * * * * * * * * * //

dimensions      [0 0 0 1 0 0 0];

internalField   nonuniform List<scalar> 
202541
(
36.71276
36.75944
36.76071
36.7571
36.28863
36.29681
36.2964
36.30375
36.04086
36.03718
36.06394
35.90229
35.88031
35.92965
35.81021
35.80921
36.79458
36.8625
36.89472
36.90407
36.90564
36.90073
36.8821
36.83249
36.70703
36.30416
36.44632
36.54201
36.56974
36.57555
36.55676
36.50662
36.39583
36.04723
36.16185
36.29516
36.32562
36.331
36.31526
36.24579
36.14912
35.88046
36.00281
36.11756
36.15083
36.15375
36.14461
36.06945
35.98092
35.80189
35.89879
35.97688
36.01911
36.0198
36.00868
35.9346
35.866
35.70783
35.81295
35.86543
35.9092
35.91192
35.89364
35.82651
35.75264
35.73166
35.76332
35.81497
35.81727
35.79913
35.76324
35.65118
35.65396
35.71653
35.74116
35.73974
35.72301
35.69642
35.63193
35.64098
35.65728
35.68112
35.6722
35.68201
35.63965
35.58326
35.62537
35.62785
35.61899
35.65125
36.84605
36.90024
36.92476
36.93631
36.94026
36.94104
36.9387
36.93185
36.91582
36.88635
36.74534
36.42979
36.56675
36.64648
36.69483
36.71161
36.71485
36.70503
36.67565
36.61606
36.52576
36.31287
36.17442
36.33031
36.42864
36.49409
36.51683
36.52049
36.50909
36.46641
36.392
36.27889
36.07008
36.00161
36.15784
36.26627
36.33369
36.3591
36.36207
36.35152
36.30361
36.22517
36.09929
35.92513
35.87212
36.02849
36.13915
36.20315
36.23236
36.235
36.22329
36.17348
36.09276
35.94137
35.80247
35.78075
35.92881
36.03663
36.09723
36.12936
36.13332
36.11782
36.07095
35.9811
35.84067
35.70158
35.69682
35.85129
35.95136
36.01067
36.04186
36.04659
36.02953
35.98857
35.8989
35.76922
35.6537
35.76146
35.87681
35.94104
35.96575
35.96914
35.95619
35.91724
35.83467
35.70737
35.59405
35.70526
35.82192
35.87774
35.90118
35.90302
35.89328
35.85457
35.77821
35.66449
35.68361
35.74894
35.80126
35.82342
35.82672
35.81197
35.79244
35.70844
35.63082
35.65094
35.67305
35.69768
35.69503
35.67828
35.66889
35.56722
35.55025
35.58617
35.57075
35.56825
35.56432
36.72551
36.86786
36.9206
36.93917
36.94975
36.95578
36.95821
36.95864
36.9573
36.9533
36.9453
36.93225
36.90067
36.83461
36.25699
36.45495
36.63361
36.71118
36.75575
36.7827
36.79378
36.7957
36.78969
36.77143
36.73676
36.68132
36.56237
36.38563
36.18922
36.40997
36.52057
36.58615
36.6265
36.64336
36.64607
36.63735
36.60929
36.55819
36.47605
36.31963
36.07238
36.02237
36.23975
36.36514
36.44426
36.49186
36.51241
36.51545
36.50523
36.47133
36.41036
36.31148
36.14829
35.88639
35.90923
36.10855
36.23905
36.32596
36.37743
36.40101
36.40449
36.3926
36.35521
36.28784
36.17951
36.02045
35.79584
35.81466
36.00208
36.13788
36.22773
36.28091
36.30659
36.31074
36.297
36.25833
36.18704
36.07583
35.91472
35.72942
35.72646
35.91287
36.0543
36.14523
36.19899
36.22484
36.22932
36.2149
36.17673
36.10414
35.991
35.80576
35.64474
35.63333
35.84465
35.98186
36.07433
36.12827
36.15248
36.15658
36.14328
36.10615
36.03374
35.92046
35.74342
35.6187
35.78249
35.92072
36.01272
36.06518
36.08803
36.09164
36.07948
36.04373
35.97237
35.85803
35.69662
35.5688
35.72251
35.85372
35.94005
35.99024
36.01072
36.01418
36.0026
35.97094
35.90135
35.79934
35.65281
35.62048
35.73595
35.82311
35.87197
35.88717
35.88914
35.88068
35.85392
35.78578
35.69192
35.65962
35.69983
35.73999
35.75901
35.76053
35.75364
35.72623
35.67991
35.59716
35.56036
35.63622
35.6063
35.59807
35.60516
35.59407
36.87618
36.92322
36.94667
36.95776
36.96405
36.96774
36.9694
36.96969
36.96878
36.96618
36.96131
36.95321
36.93711
36.90666
36.7903
36.43987
36.64455
36.74214
36.7927
36.82197
36.83933
36.84718
36.84855
36.84425
36.83197
36.80923
36.77167
36.70116
36.5714
36.31414
36.19271
36.42651
36.56439
36.64304
36.69013
36.71814
36.73094
36.73313
36.72619
36.70622
36.66961
36.60952
36.50482
36.32681
36.04942
36.00961
36.26109
36.41641
36.51265
36.57271
36.60838
36.62491
36.62771
36.61877
36.59318
36.54644
36.47054
36.34792
36.15118
35.87377
35.89153
36.13453
36.29465
36.4013
36.47017
36.51114
36.53052
36.53386
36.52326
36.49368
36.43983
36.35364
36.2223
36.02648
35.78806
35.81198
36.03185
36.19341
36.30715
36.38151
36.42586
36.44723
36.45102
36.43911
36.40702
36.34854
36.25597
36.11841
35.93179
35.71374
35.72879
35.94028
36.10838
36.22694
36.30464
36.35093
36.3732
36.37723
36.36467
36.33138
36.27018
36.17363
36.02994
35.84363
35.62667
35.6233
35.86258
36.03754
36.15763
36.23713
36.28428
36.30651
36.31052
36.29803
36.26447
36.20196
36.10355
35.95848
35.74392
35.5893
35.80422
35.97598
36.09701
36.17683
36.22393
36.24569
36.24956
36.23744
36.20424
36.14154
36.04265
35.8983
35.69193
35.55217
35.72322
35.90602
36.02672
36.105
36.15118
36.17174
36.17538
36.16395
36.1321
36.07031
35.97324
35.82696
35.64534
35.62878
35.79588
35.91664
35.99147
36.03548
36.05321
36.05607
36.04667
36.01743
35.95861
35.8646
35.71078
35.55116
35.68697
35.80235
35.87205
35.91403
35.93056
35.93195
35.92542
35.89615
35.8446
35.74055
35.58871
35.60834
35.67549
35.74434
35.78762
35.79031
35.7877
35.79151
35.76839
35.71419
35.62438
35.62567
35.64549
35.62167
35.61851
35.63663
35.6292
35.60218
36.85334
36.92281
36.9478
36.9614
36.9689
36.9733
36.97587
36.97709
36.97731
36.97663
36.97478
36.97138
36.9657
36.95561
36.93752
36.89997
36.75534
36.43342
36.64013
36.74808
36.80975
36.84509
36.86618
36.87859
36.88451
36.88557
36.88226
36.87332
36.85697
36.82988
36.78318
36.70232
36.55836
36.31037
36.1718
36.42425
36.57619
36.67051
36.72796
36.76322
36.78412
36.79411
36.79592
36.79032
36.77523
36.74778
36.70289
36.62912
36.50931
36.31596
36.05218
36.00465
36.25929
36.43323
36.54766
36.62128
36.66781
36.69553
36.70888
36.7113
36.7038
36.68373
36.64736
36.58872
36.49664
36.35511
36.14367
35.88254
35.88512
36.13106
36.31412
36.44099
36.52623
36.58132
36.6143
36.63032
36.63325
36.6242
36.60026
36.55704
36.48814
36.38363
36.23058
36.01707
35.75187
35.77371
36.02452
36.21316
36.34883
36.44255
36.50385
36.54067
36.55867
36.562
36.55177
36.52501
36.47677
36.40046
36.28686
36.12653
35.90828
35.63588
35.65311
35.92359
36.12573
36.26938
36.36905
36.43463
36.47404
36.49331
36.4969
36.48591
36.45731
36.40564
36.32421
36.20376
36.03425
35.78228
35.57999
35.84348
36.05227
36.20085
36.30409
36.37235
36.41335
36.43325
36.43695
36.42562
36.39598
36.34217
36.2576
36.13321
35.95721
35.70645
35.56544
35.78464
35.98964
36.14029
36.24583
36.31557
36.35734
36.37741
36.38112
36.36975
36.3397
36.28476
36.19832
36.07156
35.89527
35.65587
35.69997
35.91285
36.0683
36.17621
36.2467
36.28868
36.30846
36.31208
36.30095
36.27104
36.21563
36.12788
35.99767
35.8172
35.58154
35.59698
35.79238
35.95655
36.06721
36.13721
36.17836
36.19683
36.20002
36.18999
36.16117
36.10662
36.01824
35.88167
35.69289
35.47199
35.68182
35.85155
35.95616
36.02481
36.06517
36.08175
36.08398
36.07613
36.04825
35.9954
35.90888
35.77491
35.58306
35.61141
35.72903
35.83219
35.90409
35.94345
35.95295
35.95314
35.95089
35.92719
35.87341
35.7881
35.68205
35.56763
35.69238
35.76983
35.80418
35.80187
35.79963
35.80589
35.78644
35.72952
35.64937
35.59947
35.64286
35.60912
35.59373
35.62127
35.63674
35.59193
36.80578
36.92168
36.94808
36.96237
36.97115
36.97651
36.97979
36.98173
36.98267
36.98285
36.98231
36.9809
36.97835
36.97417
36.9673
36.95613
36.9374
36.89401
36.36119
36.63597
36.74831
36.81445
36.85599
36.88177
36.89773
36.9072
36.91184
36.91271
36.91006
36.90317
36.89075
36.87046
36.83768
36.78532
36.70082
36.54059
36.10048
36.40926
36.57445
36.67868
36.74634
36.78964
36.81693
36.83322
36.84122
36.84272
36.83815
36.82628
36.80495
36.77051
36.71626
36.63225
36.50218
36.28638
35.92359
36.23182
36.4283
36.55841
36.64554
36.70298
36.73983
36.76197
36.77289
36.77494
36.7687
36.75254
36.72362
36.67743
36.60648
36.49991
36.34079
36.09017
35.77976
36.08806
36.30503
36.45288
36.55454
36.62317
36.66783
36.69477
36.70813
36.71064
36.70299
36.6833
36.64814
36.59248
36.50864
36.38591
36.20784
35.92516
35.67405
35.96648
36.19935
36.36042
36.47325
36.55063
36.60143
36.63216
36.64744
36.65032
36.64156
36.61907
36.57901
36.51592
36.42207
36.28715
36.09477
35.8123
35.61741
35.877
36.1091
36.27981
36.40112
36.48506
36.54047
36.57405
36.59074
36.5939
36.58432
36.55976
36.51601
36.44734
36.34595
36.20179
36.00122
35.73108
35.54633
35.80498
36.03426
36.21003
36.33705
36.42563
36.48434
36.51994
36.53758
36.54091
36.5308
36.50482
36.45842
36.38578
36.27917
36.12924
35.92572
35.66927
35.73438
35.96756
36.14775
36.27908
36.37111
36.43213
36.46907
36.48727
36.4907
36.48029
36.45341
36.40522
36.32971
36.21914
36.06489
35.85478
35.58912
35.65648
35.88661
36.07217
36.20896
36.30466
36.36772
36.4057
36.42421
36.42769
36.41716
36.38966
36.33997
36.2617
36.14654
35.98665
35.77236
35.53751
35.51518
35.75896
35.95487
36.09977
36.19953
36.26415
36.3026
36.32083
36.32415
36.314
36.28646
36.23587
36.15504
36.0337
35.86478
35.63116
35.64429
35.84984
35.99453
36.09395
36.15898
36.19735
36.21444
36.21726
36.2083
36.18135
36.13066
36.04957
35.92815
35.75885
35.51544
35.57144
35.72903
35.87543
35.97877
36.04537
36.08302
36.09681
36.0986
36.0924
36.06763
36.01642
35.93278
35.81046
35.6385
35.57724
35.72475
35.84892
35.91679
35.95237
35.96054
35.96057
35.95906
35.9376
35.88662
35.79651
35.66164
35.58196
35.71082
35.76758
35.80094
35.79889
35.7929
35.80232
35.78596
35.73374
35.67001
35.58808
35.62712
35.60221
35.5964
35.61204
35.61382
35.58196
36.74893
36.90632
36.94599
36.9622
36.9718
36.97802
36.98204
36.98459
36.98611
36.98688
36.98702
36.98658
36.98547
36.98347
36.98026
36.97525
36.96754
36.95535
36.9318
36.85781
36.30131
36.58129
36.7375
36.81287
36.85899
36.88915
36.90877
36.92128
36.9288
36.93256
36.93327
36.93111
36.9256
36.91579
36.90008
36.8757
36.83847
36.7805
36.67648
36.44786
36.05317
36.33959
36.55321
36.67416
36.75113
36.80224
36.83596
36.85766
36.87077
36.87733
36.87858
36.8748
36.86519
36.84813
36.82097
36.77936
36.71671
36.62122
36.46307
36.19216
35.88635
36.16018
36.39667
36.55016
36.65142
36.71986
36.76571
36.79552
36.8136
36.82268
36.82441
36.81918
36.80591
36.78241
36.74526
36.6891
36.60589
36.48194
36.28955
36.02074
36.01913
36.26689
36.44132
36.56087
36.64328
36.69929
36.73602
36.75838
36.76963
36.77178
36.7653
36.74886
36.71984
36.67423
36.60609
36.50678
36.36264
36.15157
35.86579
35.90586
36.15965
36.34648
36.47949
36.57299
36.6373
36.67977
36.70569
36.71874
36.72124
36.71371
36.69465
36.66105
36.60847
36.53064
36.41892
36.26105
36.04168
35.75361
35.78797
36.06956
36.26415
36.40685
36.50892
36.57982
36.62689
36.65566
36.67015
36.67293
36.66457
36.64342
36.60614
36.54799
36.46255
36.34149
36.17437
35.9472
35.65646
35.71315
35.99103
36.19189
36.34183
36.45046
36.52649
36.57713
36.60811
36.62369
36.62668
36.61771
36.59495
36.55481
36.49233
36.401
36.27291
36.09873
35.86482
35.58948
35.65067
35.91987
36.1262
36.28244
36.39644
36.47656
36.52998
36.56263
36.579
36.58214
36.57273
36.54878
36.50646
36.44056
36.34448
36.21053
36.02973
35.79147
35.53817
35.58133
35.83719
36.04689
36.21018
36.3302
36.41467
36.47087
36.5051
36.52216
36.52542
36.51565
36.49062
36.44617
36.37676
36.27546
36.13488
35.94731
35.69769
35.4643
35.68292
35.92304
36.09785
36.22571
36.31527
36.3744
36.41011
36.42761
36.43091
36.42101
36.39511
36.34853
36.27521
36.16746
36.01759
35.8147
35.58198
35.55444
35.80906
35.99158
36.12282
36.2153
36.27637
36.31283
36.33003
36.33314
36.32369
36.29764
36.24974
36.17396
36.0629
35.90896
35.67305
35.43446
35.44134
35.68723
35.87168
36.00834
36.10655
36.17012
36.20679
36.22268
36.22533
36.21708
36.19175
36.14259
36.0627
35.94584
35.78553
35.57484
35.52787
35.71798
35.87439
35.98374
36.04969
36.08582
36.09935
36.10112
36.09502
36.07119
36.0213
35.9357
35.80332
35.63772
35.58088
35.72489
35.84381
35.90966
35.94413
35.9546
35.95441
35.95205
35.93008
35.88085
35.79503
35.66098
35.56118
35.68125
35.74157
35.77179
35.78502
35.78328
35.78338
35.75888
35.70941
35.61965
35.56826
35.59111
35.56837
35.55575
35.58346
35.57251
36.73311
36.89214
36.93965
36.96005
36.97126
36.97835
36.98307
36.98622
36.98826
36.9895
36.99013
36.99025
36.98989
36.98898
36.98737
36.98482
36.98096
36.97518
36.96638
36.95158
36.92244
36.82369
36.30029
36.53287
36.70907
36.8021
36.85603
36.89063
36.91383
36.92933
36.93941
36.94555
36.94865
36.94925
36.94746
36.94294
36.93498
36.92243
36.90343
36.87515
36.83236
36.76248
36.63767
36.3904
36.05181
36.249
36.50899
36.65478
36.74517
36.8045
36.84466
36.87168
36.88935
36.90013
36.9056
36.90665
36.90349
36.89555
36.88159
36.85964
36.82663
36.77788
36.7051
36.59099
36.4044
36.13146
35.88927
36.07524
36.34354
36.5234
36.64231
36.72252
36.7775
36.81484
36.83939
36.85443
36.86206
36.86354
36.85913
36.84804
36.8286
36.79817
36.75276
36.68637
36.58904
36.44274
36.22236
35.94967
35.93826
36.20998
36.40985
36.54915
36.64606
36.71356
36.75986
36.79049
36.80931
36.81887
36.82072
36.81519
36.80131
36.77702
36.73915
36.68309
36.60215
36.48606
36.31878
36.08047
35.79803
35.8424
36.10111
36.31233
36.46575
36.57565
36.65347
36.70737
36.74322
36.7653
36.77653
36.77871
36.77221
36.75592
36.72745
36.68323
36.61824
36.52558
36.39559
36.21494
35.97179
35.72543
35.75724
36.00605
36.22708
36.39113
36.51116
36.59737
36.65759
36.69783
36.72264
36.73527
36.73772
36.73042
36.71211
36.68013
36.6306
36.55826
36.45624
36.31565
36.12451
35.87773
35.64735
35.65607
35.92279
36.15145
36.32377
36.45193
36.54499
36.6104
36.65426
36.68132
36.69509
36.69776
36.68981
36.66985
36.63498
36.58107
36.50269
36.39312
36.24412
36.04496
35.77117
35.59575
35.8502
36.08315
36.26189
36.39689
36.49567
36.56541
36.61223
36.64111
36.65579
36.65865
36.65019
36.62889
36.59166
36.53413
36.45073
36.3348
36.17883
35.97409
35.70469
35.54026
35.77082
36.00116
36.18655
36.3292
36.43431
36.50874
36.55872
36.58951
36.6051
36.60813
36.59916
36.57652
36.5368
36.47539
36.38647
36.26348
36.09972
35.89063
35.64926
35.62634
35.86701
36.06807
36.22237
36.33578
36.41611
36.46992
36.50287
36.51939
36.52258
36.51316
36.48905
36.44641
36.3802
36.28421
36.15148
35.97367
35.75159
35.51633
35.48613
35.73011
35.95394
36.11798
36.23731
36.32222
36.37898
36.41339
36.43027
36.43346
36.42399
36.39907
36.35428
36.2843
36.18303
36.04325
35.84911
35.60482
35.59162
35.83213
36.0026
36.1292
36.22008
36.28001
36.31547
36.33215
36.3352
36.32609
36.30088
36.25411
36.17955
36.07144
35.92414
35.7234
35.46519
35.49149
35.67702
35.86565
36.00525
36.1044
36.16744
36.20355
36.21955
36.22228
36.21393
36.18888
36.14041
36.0606
35.9413
35.77974
35.5863
35.51961
35.70875
35.86491
35.96989
36.03531
36.07161
36.08688
36.08904
36.08177
36.05695
36.00735
35.92467
35.79419
35.62913
35.5529
35.69833
35.80618
35.87455
35.9116
35.9274
35.92917
35.92261
35.89662
35.84669
35.76376
35.63886
35.61894
35.66849
35.71397
35.72255
35.72579
35.72333
35.68858
35.64885
35.58949
35.4745
35.51726
35.51776
35.5122
36.73741
36.883
36.92922
36.95567
36.96931
36.97767
36.98317
36.98692
36.98947
36.99114
36.99217
36.9927
36.9928
36.9925
36.99174
36.99041
36.98834
36.98524
36.9807
36.97397
36.96341
36.94519
36.90674
36.83487
36.32163
36.5175
36.66413
36.78125
36.84641
36.88717
36.91427
36.93278
36.94537
36.95368
36.95879
36.9614
36.96191
36.9604
36.95662
36.95004
36.93977
36.92448
36.9021
36.86905
36.81796
36.73288
36.5846
36.42153
36.08783
36.27315
36.44509
36.62104
36.72845
36.79818
36.84527
36.87768
36.89981
36.91446
36.92348
36.9281
36.929
36.92633
36.91966
36.90804
36.88995
36.86312
36.82407
36.76699
36.68088
36.54514
36.34776
36.17595
35.93632
36.10029
36.27589
36.48166
36.61977
36.71347
36.7781
36.82305
36.85395
36.87449
36.88716
36.89366
36.89493
36.89118
36.8818
36.86549
36.84018
36.80282
36.74891
36.67123
36.55761
36.38934
36.1707
36.01291
35.85832
35.94896
36.14246
36.36363
36.52235
36.63467
36.71402
36.76994
36.80867
36.83452
36.85052
36.85873
36.86034
36.8556
36.84376
36.82319
36.79138
36.74471
36.67803
36.58362
36.44991
36.26221
36.03051
35.90174
35.80104
35.855
36.03739
36.26314
36.43568
36.56222
36.65366
36.71894
36.76452
36.79508
36.81403
36.82376
36.82567
36.82005
36.80602
36.78169
36.74416
36.68943
36.61201
36.5043
36.35602
36.1574
35.9298
35.81514
35.7819
35.94508
36.17441
36.35794
36.49574
36.5971
36.67031
36.72178
36.75642
36.77794
36.789
36.79118
36.78479
36.76886
36.74125
36.69878
36.63716
36.55078
36.43234
36.27262
36.06487
35.84706
35.74102
35.70771
35.86263
36.09596
36.28777
36.43447
36.54405
36.62397
36.68047
36.71861
36.74234
36.75453
36.75693
36.7499
36.73234
36.70192
36.65522
36.58773
36.49384
36.36668
36.19818
35.98279
35.75014
35.66016
35.62373
35.78993
36.02694
36.2237
36.37741
36.49393
36.57958
36.64039
36.68152
36.70713
36.72027
36.72286
36.71529
36.69635
36.66354
36.61321
36.54072
36.44043
36.30607
36.13124
35.91293
35.68263
35.59379
35.7156
35.94373
36.14553
36.30706
36.43142
36.5235
36.58913
36.63358
36.66123
36.67542
36.67821
36.67006
36.64963
36.61417
36.55982
36.48171
36.37422
36.23168
36.05013
35.82798
35.62877
35.5619
35.80695
36.01918
36.19471
36.3308
36.43167
36.50373
36.55253
36.5828
36.59822
36.60125
36.59244
36.57017
36.53131
36.47162
36.38594
36.26829
36.11247
35.91786
35.67604
35.64747
35.8902
36.08349
36.23048
36.3387
36.4162
36.46858
36.50083
36.51705
36.52021
36.51103
36.48747
36.44589
36.38172
36.28968
36.1633
35.99306
35.78139
35.52809
35.51124
35.74609
35.9637
36.12095
36.23719
36.32068
36.37664
36.41056
36.42724
36.43045
36.42113
36.39663
36.35255
36.2836
36.18447
36.04913
35.86487
35.62829
35.61002
35.82673
35.99463
36.12139
36.21201
36.27158
36.30694
36.32387
36.32704
36.31777
36.29255
36.24609
36.17197
36.06376
35.91706
35.72769
35.49142
35.47258
35.66035
35.84833
35.98695
36.08443
36.14742
36.18417
36.20141
36.2045
36.1953
36.16929
36.12058
36.04176
35.92386
35.7633
35.57101
35.47856
35.67009
35.82299
35.9292
35.99618
36.03489
36.05315
36.05623
36.04682
36.01916
35.96801
35.88292
35.75567
35.59818
35.61609
35.74074
35.80811
35.84942
35.87108
35.8743
35.86416
35.83327
35.77752
35.68034
35.51874
35.53381
35.59416
35.61664
35.66589
35.66648
35.63727
35.61213
35.58207
36.79235
36.88898
36.92637
36.94839
36.96596
36.97598
36.98247
36.98689
36.98995
36.99205
36.99345
36.99432
36.99476
36.99485
36.99459
36.99395
36.99284
36.99111
36.98857
36.9849
36.97957
36.97156
36.95865
36.93651
36.91171
36.8485
36.71064
36.35733
36.53694
36.65696
36.74819
36.83028
36.87889
36.91078
36.93258
36.94772
36.95815
36.9651
36.96941
36.97164
36.97208
36.9708
36.9676
36.96207
36.95352
36.94093
36.92277
36.89649
36.85738
36.79553
36.6973
36.60478
36.44562
36.11887
36.30049
36.4447
36.5714
36.70182
36.7839
36.83907
36.87724
36.90391
36.92234
36.93466
36.94231
36.94626
36.94704
36.94476
36.9391
36.92929
36.91416
36.89194
36.86003
36.81424
36.74724
36.64513
36.49876
36.37933
36.20341
35.96546
36.13771
36.28273
36.42361
36.58559
36.69413
36.76939
36.82232
36.85962
36.88553
36.9029
36.91372
36.9193
36.92041
36.91719
36.90918
36.89534
36.87402
36.84286
36.79839
36.73534
36.64512
36.51347
36.34077
36.21603
36.04334
35.85877
36.02614
36.1571
36.30194
36.48302
36.61126
36.70307
36.76884
36.81569
36.84843
36.87046
36.8842
36.8913
36.89271
36.88862
36.87844
36.86086
36.83388
36.7946
36.73902
36.66127
36.55273
36.40085
36.21486
36.09607
35.9378
35.82913
35.94186
36.05667
36.20107
36.39271
36.53545
36.64067
36.71741
36.77266
36.81152
36.83777
36.85417
36.86265
36.86434
36.85945
36.84729
36.82634
36.79424
36.74776
36.6825
36.59251
36.46969
36.30423
36.11369
35.99843
35.88155
35.85179
35.97337
36.11402
36.3121
36.46602
36.58219
36.66824
36.73081
36.77508
36.80509
36.82387
36.8336
36.83553
36.82993
36.81601
36.79203
36.7554
36.70257
36.62899
36.52877
36.3946
36.21923
36.02865
35.91609
35.79812
35.78433
35.89983
36.03725
36.2398
36.40217
36.52726
36.62125
36.69018
36.73921
36.77253
36.79342
36.80424
36.8064
36.80017
36.78469
36.75804
36.71741
36.65905
36.57829
36.46951
36.32638
36.14386
35.95268
35.84691
35.72748
35.75728
35.83292
35.9687
36.17409
36.34281
36.47529
36.57612
36.65061
36.70382
36.74006
36.7628
36.77459
36.77693
36.77016
36.75332
36.72432
36.68017
36.61695
36.52995
36.41391
36.26365
36.07616
35.88527
35.78023
35.7452
35.66486
35.74826
35.88682
36.09347
36.26931
36.41026
36.51897
36.59984
36.65784
36.69743
36.72228
36.73515
36.73772
36.73034
36.71194
36.68027
36.63209
36.5633
36.46912
36.3447
36.18635
35.99356
35.80315
35.71304
35.63132
35.74834
35.95947
36.14939
36.3045
36.42505
36.51502
36.57973
36.62395
36.65167
36.66598
36.66884
36.66067
36.64021
36.60487
36.55107
36.47442
36.36982
36.23217
36.05939
35.8534
35.65807
35.59581
35.60438
35.81309
36.02647
36.19794
36.32989
36.42795
36.49857
36.54676
36.57682
36.59222
36.59529
36.58656
36.56448
36.52606
36.46737
36.38378
36.26964
36.11811
35.9268
35.68479
35.52202
35.64555
35.89304
36.08267
36.22616
36.33269
36.40945
36.46154
36.4937
36.50998
36.51321
36.50406
36.4806
36.43927
36.37561
36.28472
36.16078
35.99485
35.78443
35.50752
35.51054
35.74416
35.95146
36.10724
36.22371
36.30742
36.36358
36.3978
36.41486
36.41821
36.40871
36.38395
36.3397
36.27062
36.17119
36.03604
35.85661
35.62989
35.57863
35.79398
35.96653
36.095
36.18673
36.24735
36.28377
36.30173
36.3052
36.2953
36.26908
36.22167
36.14654
36.03699
35.88782
35.67541
35.45159
35.60329
35.79109
35.93627
36.03977
36.10602
36.14513
36.16452
36.16819
36.15761
36.12933
36.07819
35.99453
35.87029
35.6933
35.46674
35.5802
35.74027
35.85925
35.93254
35.97435
35.99696
36.00083
35.98885
35.95727
35.90257
35.80551
35.65987
35.47096
35.52074
35.64549
35.72683
35.76334
35.79556
35.796
35.78359
35.74205
35.689
35.58179
35.50929
35.51809
35.56035
35.51668
35.54713
35.49013
36.83216
36.89722
36.92865
36.94672
36.96053
36.97329
36.98102
36.98621
36.98982
36.99236
36.99412
36.99531
36.99605
36.99644
36.99651
36.99629
36.99574
36.9948
36.99335
36.99123
36.9882
36.98388
36.97758
36.96785
36.95278
36.93894
36.91494
36.87571
36.73434
36.40263
36.5519
36.66823
36.74249
36.8048
36.86583
36.90364
36.92923
36.94711
36.9597
36.96846
36.97436
36.97805
36.97997
36.98035
36.97925
36.97652
36.97181
36.9646
36.95407
36.93907
36.91771
36.88678
36.83958
36.76935
36.70948
36.61676
36.46109
36.31928
36.1376
36.32019
36.46382
36.56673
36.66127
36.76185
36.82667
36.87132
36.9028
36.92507
36.94062
36.9511
36.95766
36.96108
36.96176
36.9598
36.95494
36.94657
36.93376
36.91511
36.88862
36.85117
36.79759
36.71786
36.60661
36.51975
36.39786
36.22554
35.97272
36.15452
36.30783
36.42257
36.53524
36.66492
36.75239
36.814
36.85799
36.88933
36.9113
36.92615
36.93547
36.94032
36.94129
36.93851
36.9316
36.91974
36.90161
36.8753
36.83813
36.78608
36.71284
36.60721
36.46918
36.36948
36.23673
36.05644
35.86062
36.03885
36.18918
36.30536
36.42695
36.57662
36.68215
36.75833
36.81351
36.85317
36.88111
36.90004
36.91194
36.91814
36.91938
36.91583
36.90701
36.89187
36.86878
36.8354
36.78854
36.72366
36.63405
36.50897
36.35479
36.25089
36.1192
35.94295
35.80081
35.96188
36.09477
36.20844
36.33401
36.49679
36.61642
36.70488
36.7699
36.81705
36.85044
36.87315
36.88744
36.89489
36.89639
36.89212
36.88152
36.86336
36.8357
36.7959
36.74041
36.66445
36.56148
36.42217
36.25898
36.15418
36.03073
35.87945
35.7833
35.88196
36.01523
36.12694
36.25303
36.42435
36.55504
36.65382
36.72742
36.78125
36.81958
36.84572
36.8622
36.87079
36.87253
36.8676
36.85539
36.83446
36.80266
36.75709
36.69397
36.6085
36.49462
36.34485
36.17735
36.07347
35.953
35.83291
35.81716
35.94844
36.05617
36.18112
36.35814
36.49754
36.605
36.68609
36.74587
36.78863
36.81788
36.83634
36.84598
36.84793
36.84241
36.82873
36.8053
36.76977
36.71903
36.64918
36.55553
36.43272
36.27516
36.1057
36.00454
35.888
35.7531
35.78432
35.88781
35.99192
36.11582
36.29671
36.44314
36.55806
36.64576
36.71084
36.75759
36.78964
36.8099
36.82048
36.82262
36.81657
36.80156
36.77587
36.73699
36.68162
36.60579
36.505
36.37471
36.21121
36.04084
35.94165
35.82722
35.73381
35.72498
35.81014
35.91487
36.03614
36.22042
36.37483
36.49845
36.5939
36.66521
36.71663
36.75197
36.77433
36.78601
36.78838
36.78172
36.76516
36.73683
36.694
36.63321
36.55036
36.44121
36.30226
36.13237
35.9624
35.86606
35.77136
35.7267
35.79304
35.9046
36.0934
36.26199
36.39968
36.50692
36.58739
36.64561
36.6857
36.71107
36.7243
36.72699
36.71948
36.70074
36.66861
36.62007
36.55134
36.45804
36.3358
36.18222
36.00064
35.83487
35.75177
35.69899
35.6515
35.75767
35.95649
36.14559
36.29875
36.41742
36.5063
36.57067
36.61497
36.64291
36.65742
36.66038
36.65219
36.63161
36.59618
36.54252
36.46657
36.36347
36.22783
36.05646
35.85336
35.68166
35.62389
35.58656
35.8041
36.01947
36.18899
36.31942
36.41701
36.48767
36.53613
36.56648
36.58213
36.58532
36.57654
36.55429
36.51567
36.45685
36.37344
36.26022
36.11066
35.91985
35.67235
35.47206
35.63057
35.87773
36.06338
36.20681
36.31434
36.39206
36.44495
36.47777
36.49454
36.49794
36.48858
36.46466
36.42271
36.35822
36.26631
36.14164
35.9774
35.77012
35.49748
35.45362
35.70806
35.91279
36.07262
36.19227
36.27845
36.33643
36.37198
36.38999
36.39363
36.38362
36.35782
36.31212
36.24096
36.13873
35.99997
35.81567
35.58508
35.52174
35.7311
35.90815
36.04296
36.14045
36.20475
36.24342
36.263
36.2669
36.25607
36.228
36.17793
36.09793
35.98226
35.82669
35.62144
35.37951
35.53326
35.71027
35.85953
35.97212
36.04405
36.08559
36.1074
36.11149
36.09959
36.06884
36.01458
35.92216
35.79126
35.61648
35.43972
35.48813
35.64561
35.77312
35.84983
35.89092
35.916
35.91846
35.90711
35.8731
35.82017
35.7144
35.58562
35.54582
35.61609
35.65073
35.67964
35.67443
35.66752
35.62872
35.59366
35.46546
35.44274
35.43977
36.79237
36.89722
36.92959
36.94768
36.95913
36.96891
36.97874
36.98493
36.98918
36.99219
36.99432
36.99582
36.99684
36.99748
36.99781
36.99788
36.99769
36.99722
36.9964
36.99517
36.99337
36.99084
36.98727
36.98217
36.9745
36.96332
36.95404
36.93972
36.9164
36.86472
36.35744
36.55191
36.67173
36.74802
36.79911
36.84488
36.89249
36.92291
36.94392
36.95883
36.96944
36.9769
36.98196
36.98515
36.98682
36.98716
36.98621
36.98384
36.9798
36.97364
36.96473
36.95214
36.93446
36.9093
36.8718
36.81852
36.77605
36.71391
36.61891
36.4646
36.11905
36.32029
36.4706
36.57712
36.65412
36.72725
36.80754
36.86026
36.89714
36.9235
36.94234
36.9556
36.96462
36.97031
36.97328
36.97389
36.97219
36.96798
36.96077
36.94981
36.93397
36.91167
36.88051
36.83657
36.77225
36.68473
36.61878
36.52835
36.40225
36.21667
35.96571
36.15465
36.31559
36.43677
36.52864
36.62023
36.72649
36.79865
36.85001
36.88707
36.91371
36.93253
36.94535
36.95344
36.95769
36.95855
36.95613
36.95014
36.93989
36.92431
36.90187
36.87041
36.82678
36.76605
36.6792
36.5665
36.48597
36.38057
36.2409
36.05246
35.85903
36.03898
36.19759
36.32279
36.42186
36.52502
36.65078
36.7392
36.80337
36.8502
36.88411
36.90816
36.92458
36.93497
36.94042
36.94153
36.93843
36.93074
36.9176
36.89766
36.86903
36.82912
36.77425
36.69901
36.59413
36.46406
36.37537
36.26409
36.12295
35.94184
35.82931
35.96198
36.10658
36.22912
36.33096
36.44091
36.58075
36.68246
36.75775
36.81338
36.85395
36.88287
36.90266
36.9152
36.92178
36.92312
36.91938
36.9101
36.89425
36.87025
36.83591
36.78829
36.72347
36.63594
36.51706
36.37558
36.28271
36.17083
36.03679
35.88328
35.88205
36.02924
36.15054
36.25296
36.36627
36.51602
36.62849
36.71337
36.77685
36.82349
36.85689
36.87981
36.89435
36.90198
36.90355
36.89921
36.88845
36.87008
36.84232
36.80274
36.74818
36.67461
36.57676
36.44712
36.29868
36.20423
36.09274
35.96036
35.82127
35.81731
35.96547
36.08364
36.18462
36.29907
36.45581
36.57705
36.67023
36.7407
36.79286
36.83035
36.85616
36.87255
36.88117
36.88294
36.87805
36.86592
36.84523
36.81402
36.76965
36.70884
36.62756
36.52099
36.38305
36.23054
36.13638
36.02742
35.89716
35.74667
35.78461
35.91266
36.02437
36.12289
36.23731
36.39906
36.52763
36.6281
36.70486
36.76203
36.80329
36.83175
36.84985
36.85938
36.86134
36.85594
36.84254
36.81972
36.78533
36.73661
36.67013
36.58198
36.46791
36.32337
36.16857
36.07555
35.97079
35.84987
35.73992
35.72553
35.85285
35.95548
36.04857
36.16129
36.32782
36.46476
36.57384
36.65809
36.72123
36.76699
36.79864
36.8188
36.82942
36.83161
36.82561
36.8107
36.78531
36.74712
36.69318
36.61995
36.52365
36.40082
36.24907
36.09321
36.00328
35.90685
35.79099
35.75705
35.83956
35.92548
36.03506
36.20879
36.35955
36.48229
36.57805
36.65022
36.70274
36.73914
36.76236
36.77458
36.77713
36.77025
36.75311
36.7239
36.68003
36.61824
36.53475
36.42573
36.28865
36.12508
35.9683
35.8833
35.79334
35.71691
35.71128
35.78423
35.89635
36.08215
36.25029
36.38747
36.49441
36.57504
36.63379
36.67452
36.70046
36.71408
36.71693
36.7093
36.69021
36.65756
36.60848
36.5394
36.44615
36.32433
36.1711
35.99064
35.82719
35.74266
35.65714
35.60778
35.73261
35.94032
36.13082
36.28357
36.40216
36.49154
36.55666
36.6017
36.63027
36.6452
36.64833
36.64001
36.61905
36.58304
36.52868
36.45209
36.34873
36.21341
36.04177
35.83492
35.64545
35.56187
35.55936
35.77949
35.99452
36.16419
36.29582
36.39504
36.46725
36.51695
36.54825
36.56452
36.56792
36.5589
36.53603
36.49643
36.43627
36.35125
36.23649
36.08626
35.895
35.64814
35.44714
35.58539
35.82992
36.02172
36.16909
36.28009
36.36074
36.41581
36.45015
36.46788
36.47157
36.46176
36.43676
36.3931
36.3261
36.23098
36.10261
35.93376
35.71198
35.4467
35.38402
35.61825
35.84969
36.01514
36.14027
36.23154
36.2931
36.33086
36.35028
36.35428
36.34355
36.31611
36.26774
36.19217
36.08456
35.94039
35.7486
35.50759
35.38108
35.62912
35.82644
35.96952
36.07408
36.14325
36.18444
36.20579
36.21007
36.19832
36.16822
36.11494
36.0285
35.90557
35.74087
35.54744
35.38001
35.60194
35.76622
35.8831
35.95986
36.00363
36.02719
36.03129
36.01884
35.98609
35.9294