/*--------------------------------*- C++ -*----------------------------------*\
| =========                 |                                                 |
| \\      /  F ield         | OpenFOAM: The Open Source CFD Toolbox           |
|  \\    /   O peration     | Version:  5.x                                   |
|   \\  /    A nd           | Web:      www.OpenFOAM.org                      |
|    \\/     M anipulation  |                                                 |
\*---------------------------------------------------------------------------*/
FoamFile
{
    version     2.0;
    format      ascii;
    class       volScalarField;
    location    "10/gland";
    object      T;
}
// * * * * * * * * * * * * * * * * * * * * * * * * * * * * * * * * * * * * * //

dimensions      [0 0 0 1 0 0 0];

internalField   nonuniform List<scalar> 
202400
(
36.70369
36.7599
36.75886
36.74846
36.27091
36.29227
36.28702
36.28557
36.03425
36.02216
36.04569
35.87157
35.84973
35.88348
35.75561
35.75834
36.78983
36.86104
36.89183
36.90238
36.90382
36.89798
36.88013
36.8291
36.703
36.28292
36.43634
36.53049
36.56116
36.56641
36.54508
36.49752
36.37974
36.01319
36.14169
36.27758
36.30897
36.31367
36.29559
36.22977
36.12086
35.8396
35.96728
36.09189
36.1223
36.12573
36.11445
36.0432
35.94047
35.75181
35.84911
35.94157
35.97966
35.98048
35.97128
35.89503
35.81409
35.64928
35.75368
35.81994
35.86416
35.86625
35.84974
35.7723
35.69396
35.6634
35.70665
35.76431
35.7665
35.74698
35.69813
35.58719
35.58248
35.64651
35.67752
35.67692
35.65385
35.62555
35.5559
35.54535
35.57452
35.59611
35.586
35.59459
35.55687
35.49445
35.53809
35.53352
35.53078
35.53959
36.84218
36.8969
36.92263
36.93432
36.93849
36.93929
36.93675
36.92991
36.91309
36.88307
36.74192
36.41167
36.55123
36.63562
36.68518
36.7027
36.706
36.69542
36.66599
36.60276
36.51016
36.29364
36.14398
36.30421
36.40865
36.47703
36.50033
36.50408
36.49187
36.44884
36.3687
36.25159
36.03847
35.95803
36.1221
36.23645
36.3088
36.33432
36.33746
36.32638
36.27732
36.19208
36.06026
35.87557
35.82081
35.98343
36.09932
36.16988
36.19953
36.20223
36.19044
36.13759
36.05007
35.89122
35.74337
35.72022
35.87445
35.98756
36.05529
36.08931
36.09332
36.07738
36.02541
35.92952
35.78152
35.63362
35.6225
35.78642
35.89359
35.95972
35.9942
35.9992
35.9807
35.93401
35.83864
35.69969
35.57075
35.68522
35.80955
35.88056
35.90864
35.91238
35.89738
35.85375
35.76375
35.62967
35.4978
35.61719
35.74303
35.80805
35.83407
35.83545
35.82489
35.78095
35.69451
35.57044
35.58277
35.65614
35.72186
35.7479
35.7499
35.73498
35.70551
35.61422
35.52283
35.55076
35.58127
35.61174
35.60903
35.58865
35.57266
35.46128
35.4479
35.4873
35.47385
35.46628
35.45831
36.72009
36.86493
36.9177
36.93667
36.94778
36.95404
36.95658
36.95703
36.95561
36.95149
36.94307
36.9296
36.89762
36.83021
36.24098
36.44083
36.61951
36.69902
36.74589
36.77407
36.78561
36.78761
36.78126
36.7624
36.72572
36.66835
36.54745
36.3688
36.16337
36.38519
36.49929
36.56839
36.61097
36.62851
36.63134
36.62215
36.59297
36.53862
36.45319
36.29316
36.04548
35.98109
36.20462
36.33507
36.41848
36.46929
36.49072
36.49392
36.48317
36.4475
36.38239
36.279
36.1098
35.85064
35.85508
36.06399
36.20039
36.2921
36.34762
36.3725
36.37615
36.36364
36.32364
36.25158
36.13783
35.97148
35.73831
35.75153
35.94821
36.09074
36.18591
36.24375
36.27134
36.27573
36.26108
36.21899
36.14266
36.02531
35.85662
35.66268
35.65485
35.84922
35.99851
36.09555
36.15436
36.18267
36.18749
36.1718
36.12969
36.05161
35.9315
35.73748
35.56541
35.55436
35.77104
35.91711
36.01659
36.07611
36.10305
36.1075
36.09276
36.05139
35.97268
35.85162
35.66366
35.51588
35.69791
35.84698
35.9468
36.00575
36.03148
36.03533
36.02182
35.98125
35.90272
35.7789
35.60339
35.46121
35.62666
35.76987
35.86464
35.92233
35.94622
35.9498
35.93684
35.89921
35.82229
35.7104
35.5546
35.51921
35.64264
35.73688
35.7925
35.81151
35.81402
35.80328
35.77116
35.696
35.59359
35.55388
35.60368
35.64942
35.67191
35.67481
35.66468
35.63341
35.58025
35.48898
35.45401
35.53347
35.51006
35.5016
35.50502
35.48983
36.87326
36.9206
36.94433
36.95573
36.96233
36.96621
36.96795
36.96826
36.9673
36.96458
36.95944
36.95104
36.93461
36.90378
36.78785
36.42579
36.63179
36.7306
36.78268
36.81339
36.83168
36.83993
36.84137
36.83683
36.82394
36.79992
36.76089
36.68886
36.55768
36.30345
36.16856
36.40383
36.5439
36.62522
36.67471
36.70438
36.71785
36.72016
36.71282
36.69175
36.65299
36.59038
36.48296
36.30329
36.02549
35.97505
36.22819
36.38721
36.48721
36.55046
36.58845
36.60593
36.6089
36.59942
36.57223
36.52261
36.44324
36.3166
36.11764
35.84017
35.8447
36.09155
36.25703
36.36836
36.44109
36.48498
36.50566
36.5092
36.49789
36.4662
36.40885
36.31838
36.18187
35.98148
35.73371
35.75313
35.97959
36.14753
36.26683
36.34566
36.39345
36.41647
36.42053
36.4077
36.37301
36.3105
36.2129
36.06927
35.87633
35.65085
35.66081
35.87894
36.05427
36.17928
36.26209
36.31226
36.33652
36.34088
36.3272
36.29089
36.22514
36.12281
35.97206
35.7786
35.55699
35.5457
35.79192
35.97528
36.1027
36.18793
36.23943
36.26392
36.26829
36.25453
36.21757
36.14998
36.04505
35.89181
35.66818
35.49218
35.72319
35.90579
36.03511
36.1212
36.17312
36.19736
36.20159
36.18812
36.15115
36.08287
35.97674
35.823
35.60285
35.44482
35.63342
35.8272
35.95673
36.04168
36.09313
36.11646
36.12048
36.10756
36.07149
36.00377
35.89902
35.74325
35.54699
35.53495
35.70768
35.83632
35.91764
35.96675
35.98747
35.99087
35.97963
35.94621
35.88156
35.78019
35.61987
35.44841
35.58535
35.71104
35.78859
35.83519
35.85478
35.85692
35.84817
35.81515
35.75781
35.64404
35.48807
35.49392
35.57415
35.651
35.69746
35.705
35.70287
35.70359
35.67666
35.61787
35.51962
35.52384
35.5408
35.5281
35.52203
35.53281
35.52432
35.49409
36.8523
36.92052
36.94563
36.95947
36.96721
36.97181
36.97453
36.97582
36.97606
36.97533
36.97337
36.96979
36.96388
36.95355
36.93523
36.89797
36.75016
36.42511
36.62881
36.73736
36.80015
36.83666
36.85878
36.8719
36.87815
36.87928
36.87577
36.8663
36.84905
36.82085
36.77295
36.69108
36.54794
36.29829
36.15411
36.40404
36.55714
36.65341
36.7129
36.74994
36.77208
36.78267
36.78458
36.77862
36.76262
36.73361
36.68678
36.61092
36.48947
36.2961
36.03303
35.97259
36.22991
36.40592
36.52321
36.5997
36.64867
36.67814
36.69235
36.69491
36.68691
36.66553
36.627
36.56568
36.47061
36.32663
36.11332
35.85214
35.84048
36.09208
36.27857
36.40933
36.49823
36.55636
36.59155
36.6087
36.61182
36.60211
36.57647
36.53056
36.45828
36.34988
36.19322
35.97559
35.71579
35.72153
35.97612
36.16951
36.31009
36.40823
36.47314
36.5126
36.53198
36.53554
36.5245
36.49568
36.44426
36.3639
36.24554
36.08036
35.85726
35.59193
35.59369
35.8659
36.07412
36.22369
36.32853
36.39824
36.44069
36.46158
36.46545
36.4535
36.4225
36.36719
36.28109
36.15501
35.97939
35.72161
35.51282
35.77695
35.99302
36.14849
36.25755
36.33042
36.37482
36.39655
36.40056
36.38815
36.35582
36.29795
36.20814
36.07734
35.89397
35.63758
35.47504
35.70873
35.92327
36.08164
36.19356
36.26832
36.31381
36.33589
36.33994
36.32738
36.29437
36.23502
36.14286
36.00906
35.82401
35.57511
35.61551
35.83896
36.0023
36.11706
36.19294
36.23893
36.26092
36.26492
36.25247
36.21932
36.15917
36.06527
35.9277
35.73783
35.49394
35.50782
35.70923
35.88047
35.99812
36.07376
36.11903
36.13989
36.14353
36.13199
36.0998
36.04033
35.94553
35.80192
35.60453
35.39494
35.58638
35.76477
35.87755
35.9524
35.99674
36.01585
36.01861
36.00903
35.97785
35.92001
35.82624
35.68391
35.48357
35.49668
35.63143
35.7449
35.82266
35.86535
35.87819
35.87896
35.87436
35.84732
35.7892
35.69726
35.57792
35.46824
35.60161
35.6796
35.71505
35.71864
35.71671
35.71879
35.69567
35.63644
35.55474
35.49884
35.54357
35.51916
35.50405
35.52555
35.53358
35.49317
36.80453
36.9199
36.94618
36.96058
36.96954
36.97508
36.97851
36.98056
36.98157
36.98175
36.98118
36.97969
36.977
36.97264
36.96559
36.95425
36.93554
36.892
36.35358
36.62694
36.73884
36.80553
36.84796
36.87464
36.89138
36.90139
36.90631
36.90723
36.90441
36.8971
36.88399
36.86285
36.82914
36.776
36.69144
36.53121
36.08555
36.39234
36.55739
36.66274
36.73199
36.77688
36.80551
36.82277
36.83128
36.83286
36.82798
36.81537
36.79285
36.75691
36.70101
36.61559
36.48493
36.26964
35.9029
36.20602
36.4035
36.53553
36.62497
36.68466
36.7234
36.7469
36.75854
36.76071
36.75403
36.73681
36.70621
36.65792
36.58462
36.4759
36.3152
36.06544
35.75211
36.05331
36.27235
36.42308
36.52785
36.59937
36.64643
36.67511
36.68938
36.69205
36.68384
36.66278
36.62551
36.56716
36.48025
36.3545
36.1737
35.89247
35.6375
35.92345
36.15882
36.32379
36.44054
36.52145
36.57512
36.60794
36.62434
36.62742
36.61796
36.59382
36.55123
36.48489
36.38726
36.24838
36.05237
35.77169
35.56929
35.82625
36.06102
36.23654
36.36257
36.45063
36.50936
36.54534
36.56333
36.56672
36.55633
36.52986
36.48319
36.41076
36.3049
36.15587
35.95103
35.68124
35.48399
35.74527
35.97907
36.16051
36.29292
36.38613
36.44855
36.48683
36.50594
36.50954
36.4985
36.47037
36.42072
36.34387
36.23219
36.0766
35.8679
35.60794
35.66466
35.90565
36.09242
36.22968
36.32678
36.39184
36.4317
36.45152
36.45524
36.44382
36.41457
36.36283
36.28273
36.16663
36.00603
35.78917
35.516
35.58178
35.81802
36.01013
36.15319
36.25438
36.32183
36.36298
36.38327
36.38706
36.37541
36.34533
36.2918
36.20852
36.08744
35.92088
35.70091
35.46406
35.43452
35.68191
35.88301
36.03445
36.1402
36.20957
36.25142
36.27159
36.27526
36.26385
36.23354
36.17881
36.09252
35.96482
35.7893
35.55433
35.55489
35.76657
35.91972
36.02617
36.09629
36.13807
36.15724
36.16047
36.1501
36.1203
36.06535
35.97819
35.84889
35.67109
35.42544
35.46884
35.63274
35.79158
35.90325
35.97462
36.01542
36.03173
36.03402
36.02601
35.99828
35.94319
35.85347
35.72034
35.54165
35.47586
35.63319
35.76672
35.83782
35.87583
35.88764
35.8883
35.88412
35.85931
35.80562
35.71022
35.56489
35.49081
35.61734
35.67909
35.71535
35.71822
35.71279
35.71911
35.69754
35.64264
35.57182
35.49004
35.53245
35.51096
35.50279
35.52008
35.51434
35.48355
36.74896
36.90502
36.94437
36.96059
36.9703
36.97667
36.98083
36.9835
36.98511
36.98592
36.98607
36.9856
36.98442
36.98232
36.97897
36.97381
36.96597
36.95372
36.9302
36.85752
36.29855
36.57444
36.72937
36.80484
36.8515
36.88239
36.90273
36.91583
36.92378
36.92776
36.92852
36.92621
36.92036
36.91002
36.89364
36.86852
36.83063
36.7723
36.66849
36.44368
36.04382
36.32629
36.53833
36.65967
36.73771
36.79013
36.82512
36.84788
36.86174
36.86871
36.87002
36.86599
36.85577
36.83778
36.80943
36.7665
36.70262
36.60632
36.44844
36.18105
35.86736
36.13977
36.37471
36.52914
36.63212
36.70248
36.75013
36.78144
36.80059
36.81024
36.81208
36.80648
36.79234
36.76752
36.72868
36.67063
36.58556
36.46015
36.26787
36.00052
35.9912
36.23775
36.41375
36.53575
36.62071
36.67904
36.71769
36.74142
36.75341
36.75569
36.74873
36.73119
36.70047
36.6527
36.58208
36.48023
36.3339
36.12267
35.83581
35.86988
36.12341
36.31246
36.44865
36.54532
36.61247
36.65725
36.68482
36.69878
36.70143
36.69332
36.67292
36.63728
36.58208
36.5012
36.38625
36.22546
36.00532
35.71672
35.74157
36.02614
36.22389
36.37047
36.47633
36.55054
36.60027
36.63095
36.6465
36.64945
36.64042
36.61771
36.57808
36.51689
36.42786
36.30291
36.13212
35.90255
35.61068
35.65723
35.9403
36.14569
36.30019
36.41313
36.49289
36.54653
36.57966
36.59642
36.59962
36.58987
36.56536
36.52259
36.45668
36.36129
36.22871
36.05001
35.81146
35.53095
35.58482
35.86222
36.07449
36.23587
36.35461
36.43883
36.49553
36.53053
36.5482
36.55156
36.5413
36.51544
36.47022
36.40057
36.30003
36.16109
35.97499
35.72983
35.46858
35.5017
35.7728
35.98898
36.15765
36.28283
36.3718
36.43159
36.46839
36.48689
36.49039
36.47968
36.45254
36.40492
36.33139
36.22521
36.07927
35.88629
35.62719
35.37128
35.60762
35.85592
36.0361
36.16969
36.26434
36.32747
36.36598
36.38507
36.38863
36.37767
36.34945
36.29938
36.22144
36.10818
35.95256
35.74461
35.50007
35.47038
35.73106
35.92002
36.05841
36.15682
36.2222
36.26158
36.2805
36.28392
36.27327
36.24476
36.1932
36.11225
35.99451
35.83343
35.59122
35.34347
35.34754
35.59727
35.79028
35.93592
36.04094
36.10879
36.14833
36.16621
36.16923
36.15955
36.13161
36.07889
35.99357
35.8685
35.69974
35.48271
35.43074
35.62913
35.79474
35.9111
35.98092
36.01979
36.03583
36.0381
36.03013
36.0034
35.95032
35.8594
35.71888
35.54449
35.48432
35.63856
35.76235
35.83248
35.86997
35.8836
35.88392
35.87943
35.85381
35.80127
35.71002
35.57227
35.46752
35.59016
35.65509
35.68805
35.70496
35.70333
35.70167
35.67322
35.61969
35.52518
35.47163
35.49398
35.48098
35.46859
35.48858
35.47516
36.73711
36.89124
36.93829
36.95862
36.96989
36.97708
36.98193
36.98519
36.98733
36.98864
36.9893
36.98943
36.98904
36.98807
36.98638
36.98372
36.97974
36.97385
36.96495
36.95014
36.92125
36.82439
36.30202
36.52746
36.70217
36.7949
36.84916
36.8843
36.90811
36.92418
36.93474
36.94121
36.9445
36.94513
36.94321
36.93842
36.93004
36.91695
36.89735
36.86847
36.82523
36.75525
36.63135
36.38726
36.04656
36.23754
36.49608
36.64171
36.73278
36.79315
36.83441
36.86245
36.88096
36.89235
36.89814
36.89925
36.89587
36.88743
36.87272
36.84981
36.81572
36.76587
36.6922
36.57776
36.39188
36.12305
35.87152
36.05707
36.32411
36.5043
36.6244
36.70618
36.76276
36.80157
36.82732
36.84322
36.85132
36.85287
36.84814
36.83635
36.81584
36.78404
36.73706
36.66906
36.5703
36.42325
36.20273
35.9341
35.91205
36.18373
36.38467
36.52574
36.62479
36.69441
36.74261
36.77479
36.7947
36.80486
36.80681
36.80088
36.78609
36.76043
36.7208
36.66269
36.57959
36.46146
36.29286
36.0533
35.77208
35.80582
36.06777
36.28104
36.43693
36.54956
36.63
36.68621
36.72394
36.74734
36.7593
36.7616
36.75461
36.73722
36.70709
36.66073
36.59323
36.49786
36.36521
36.18242
35.93695
35.67786
35.71261
35.96499
36.18965
36.35704
36.4804
36.56972
36.63264
36.67505
36.7014
36.71487
36.71746
36.70959
36.69
36.65609
36.60406
36.52878
36.42352
36.2796
36.08511
35.83468
35.5948
35.60302
35.87368
36.10799
36.28465
36.41669
36.5133
36.58177
36.62807
36.65686
36.67159
36.67441
36.66581
36.6444
36.60736
36.55064
36.46892
36.35562
36.20258
35.99861
35.71776
35.53311
35.79324
36.03403
36.21805
36.35741
36.46011
36.53323
36.58274
36.61353
36.62926
36.63228
36.6231
36.60022
36.5606
36.49997
36.41286
36.29279
36.13217
35.92117
35.6423
35.46768
35.70574
35.94555
36.13706
36.28449
36.39394
36.47211
36.52507
36.55795
36.57471
36.57791
36.56815
36.54374
36.50139
36.43654
36.34352
36.21597
36.04707
35.83031
35.58023
35.55023
35.80173
36.00979
36.16936
36.28775
36.3724
36.42957
36.46486
36.48268
36.48606
36.47573
36.44965
36.40405
36.3339
36.23319
36.09531
35.91189
35.68079
35.43665
35.40457
35.65558
35.88646
36.05662
36.18193
36.27182
36.33225
36.36916
36.38746
36.39087
36.38037
36.35332
36.30534
36.23095
36.1241
35.97818
35.77788
35.52488
35.50669
35.75513
35.93307
36.06677
36.16324
36.22696
36.26499
36.28326
36.28658
36.27626
36.24878
36.19875
36.11948
36.00487
35.85026
35.64227
35.37378
35.38867
35.5912
35.78895
35.93613
36.04099
36.10779
36.14651
36.16439
36.16745
36.15766
36.1301
36.07842
35.99386
35.8679
35.69806
35.49455
35.42585
35.62379
35.78881
35.89895
35.96824
36.00735
36.02486
36.02739
36.01848
35.9908
35.93785
35.85051
35.71398
35.53867
35.45876
35.61271
35.7265
35.79895
35.83884
35.85724
35.85938
35.85098
35.822
35.76856
35.68101
35.54908
35.5296
35.58319
35.63068
35.6431
35.64664
35.64113
35.60305
35.5619
35.49489
35.38092
35.42646
35.42256
35.41939
36.73771
36.88202
36.92789
36.95433
36.96804
36.97648
36.9821
36.98595
36.98859
36.99034
36.99143
36.99198
36.99209
36.99177
36.99096
36.98956
36.9874
36.9842
36.97956
36.97272
36.96208
36.94383
36.90555
36.83425
36.3134
36.51076
36.65717
36.7745
36.84001
36.88125
36.90889
36.92793
36.94099
36.94967
36.95505
36.95781
36.95834
36.95673
36.95273
36.9458
36.93509
36.91928
36.89637
36.86281
36.8113
36.72593
36.57776
36.41414
36.06974
36.25839
36.43163
36.60863
36.71688
36.78753
36.8356
36.86896
36.89194
36.90727
36.91678
36.92166
36.9226
36.91975
36.91266
36.90043
36.88155
36.85379
36.81378
36.75574
36.66877
36.53215
36.33364
36.15951
35.90362
36.07512
36.25511
36.46335
36.60297
36.69811
36.76419
36.81052
36.84264
36.86414
36.87752
36.88439
36.88571
36.88169
36.87173
36.85454
36.82809
36.78942
36.73407
36.65495
36.53993
36.36984
36.1476
35.98407
35.80243
35.91126
36.11371
36.33924
36.5003
36.61462
36.69593
36.75365
36.79396
36.82107
36.83796
36.84665
36.84833
36.84324
36.83064
36.80895
36.77568
36.72729
36.65871
36.56233
36.42656
36.2359
35.9973
35.85825
35.72921
35.80859
36.00064
36.23254
36.40837
36.53758
36.63147
36.69899
36.74648
36.77856
36.7986
36.80892
36.81091
36.80486
36.78992
36.7642
36.72491
36.66807
36.5883
36.47805
36.32694
36.12415
35.88744
35.75994
35.72671
35.90059
36.1374
36.32542
36.46662
36.57094
36.64678
36.7005
36.73692
36.7597
36.77144
36.7737
36.76682
36.74982
36.72061
36.67606
36.61197
36.5228
36.40124
36.23774
36.02446
35.7966
35.67663
35.64561
35.81066
36.05258
36.25018
36.40105
36.51406
36.59698
36.65604
36.69619
36.72134
36.7343
36.7368
36.72921
36.71044
36.6782
36.62915
36.55886
36.46175
36.33088
36.1576
35.93519
35.69206
35.59045
35.55318
35.73039
35.97766
36.18134
36.33991
36.46028
36.54927
36.61291
36.65628
36.68344
36.69744
36.70014
36.69194
36.67167
36.63684
36.58392
36.50829
36.40442
36.26584
36.08532
35.85879
35.61474
35.51496
35.65011
35.88775
36.09743
36.26454
36.39321
36.48903
36.55781
36.60475
36.63414
36.64926
36.65217
36.64332
36.6214
36.58372
36.52645
36.44484
36.33336
36.18607
35.9979
35.76698
35.55755
35.49468
35.74224
35.96248
36.14427
36.28528
36.39051
36.46624
36.51789
36.55012
36.56661
36.56977
36.56015
36.53617
36.49476
36.43171
36.34195
36.21968
36.05851
35.85666
35.60687
35.57426
35.82519
36.02514
36.1778
36.29113
36.37284
36.42836
36.46274
36.48014
36.48345
36.47335
36.44792
36.40356
36.3356
36.23882
36.10706
35.93085
35.71196
35.44761
35.42189
35.67094
35.89719
36.06129
36.18344
36.27161
36.33089
36.36706
36.38504
36.38841
36.37806
36.35153
36.30451
36.23148
36.12697
35.9853
35.79371
35.54838
35.5193
35.75208
35.92834
36.06157
36.15705
36.22002
36.25774
36.27614
36.27951
36.26905
36.24163
36.19215
36.11382
35.99994
35.84599
35.64606
35.38919
35.37302
35.5776
35.77489
35.9206
36.0229
36.08939
36.12864
36.14756
36.15088
36.14034
36.11191
36.06007
35.97701
35.85335
35.68444
35.48078
35.38623
35.58792
35.74859
35.85998
35.93059
35.97188
35.99204
35.99538
35.9845
35.95427
35.89988
35.81036
35.67697
35.50855
35.53585
35.66238
35.73337
35.77732
35.80115
35.80449
35.79284
35.75925
35.70044
35.5989
35.44168
35.44145
35.50427
35.53432
35.58362
35.58339
35.55438
35.52621
35.49537
36.78855
36.88646
36.92452
36.94687
36.96467
36.97484
36.98145
36.98597
36.98912
36.9913
36.99276
36.99367
36.99414
36.99424
36.99396
36.99328
36.99211
36.99031
36.98768
36.98391
36.97847
36.97034
36.95725
36.93481
36.9096
36.84528
36.70674
36.34099
36.52461
36.64753
36.74045
36.82383
36.87319
36.90566
36.92798
36.94358
36.9544
36.96167
36.96621
36.96855
36.969
36.96763
36.96424
36.95842
36.9495
36.93647
36.91782
36.891
36.85126
36.78848
36.6886
36.5941
36.43091
36.09156
36.27803
36.42693
36.55704
36.69011
36.77362
36.82987
36.86898
36.89648
36.91562
36.9285
36.93655
36.94072
36.94152
36.93908
36.93306
36.92274
36.90694
36.88393
36.85114
36.80436
36.73617
36.63222
36.48242
36.35939
36.17778
35.92272
36.10332
36.25554
36.40216
36.5685
36.67926
36.75613
36.81043
36.84894
36.87587
36.89405
36.90543
36.91132
36.91246
36.909
36.90049
36.88591
36.86364
36.83134
36.78559
36.72107
36.62906
36.49446
36.31596
36.18547
36.00419
35.79979
35.97817
36.11966
36.27314
36.46048
36.59181
36.6858
36.75339
36.8018
36.83587
36.85894
36.87341
36.88091
36.88236
36.87796
36.86713
36.84861
36.82039
36.77964
36.72236
36.64267
36.53165
36.37561
36.18104
36.05368
35.88342
35.74641
35.8802
36.00951
36.16502
36.36469
36.51146
36.61946
36.69846
36.75564
36.79612
36.82363
36.84092
36.84988
36.85162
36.84635
36.83342
36.8113
36.7777
36.72941
36.66207
36.56962
36.4436
36.27275
36.07128
35.94443
35.80999
35.78083
35.91796
36.07099
36.27865
36.43757
36.55714
36.6459
36.71074
36.75691
36.7884
36.80821
36.81849
36.82048
36.81444
36.79961
36.77427
36.73588
36.68094
36.60488
36.50169
36.36354
36.18159
35.97841
35.8534
35.71818
35.70331
35.83599
35.98756
36.2011
36.36941
36.49851
36.59562
36.66715
36.71834
36.75335
36.77541
36.78686
36.78907
36.78235
36.76583
36.73764
36.695
36.63422
36.55062
36.43839
36.29053
36.10031
35.89471
35.77496
35.6382
35.65792
35.76018
35.91308
36.13055
36.30598
36.44301
36.54733
36.62473
36.68034
36.71846
36.7425
36.75497
36.75738
36.75006
36.73206
36.70135
36.65497
36.58905
36.49888
36.37894
36.2233
36.02728
35.82009
35.69451
35.62648
35.56997
35.67076
35.82574
36.04431
36.22749
36.37359
36.48622
36.57037
36.63107
36.67275
36.69905
36.71269
36.71533
36.70732
36.68763
36.65404
36.60335
36.53153
36.43379
36.30498
36.1406
35.93891
35.73284
35.62645
35.55068
35.68403
35.90271
36.1
36.26084
36.38594
36.47974
36.54762
36.59427
36.62364
36.63883
36.64176
36.63286
36.6109
36.57333
36.51661
36.43641
36.32765
36.18503
36.00579
35.79207
35.58819
35.5059
35.53637
35.74965
35.96984
36.14748
36.28462
36.38714
36.46137
36.51226
36.54415
36.56051
36.56366
36.55409
36.53034
36.48945
36.42747
36.33978
36.22086
36.06379
35.86605
35.61773
35.44067
35.57483
35.82825
36.02525
36.17488
36.28649
36.36725
36.42225
36.45638
36.47372
36.47702
36.46694
36.44165
36.39767
36.33042
36.23493
36.10545
35.93291
35.71587
35.44545
35.42661
35.66845
35.88683
36.05001
36.17211
36.26006
36.31927
36.35557
36.37381
36.37725
36.3667
36.33996
36.29291
36.22006
36.11568
35.97417
35.78598
35.54875
35.49415
35.72199
35.90289
36.03753
36.13364
36.19742
36.23605
36.25533
36.25891
36.24785
36.21949
36.16914
36.09013
35.97537
35.81899
35.59543
35.36733
35.52278
35.72003
35.87202
35.97999
36.04952
36.09096
36.11177
36.11556
36.10375
36.07319
36.01902
35.93138
35.80178
35.61446
35.38621
35.50693
35.66929
35.79126
35.86795
35.91233
35.93629
35.94018
35.92716
35.89319
35.83532
35.73469
35.58625
35.39563
35.43802
35.56512
35.65162
35.69231
35.72405
35.72398
35.71232
35.66816
35.61004
35.50192
35.42209
35.44071
35.47233
35.42769
35.46543
35.4093
36.82797
36.89386
36.92615
36.94476
36.95898
36.97209
36.98
36.98532
36.98903
36.99165
36.99348
36.99472
36.9955
36.99591
36.99598
36.99575
36.99516
36.99417
36.99265
36.99046
36.98734
36.98291
36.97647
36.96649
36.95099
36.93673
36.91203
36.87197
36.72977
36.3827
36.5359
36.65596
36.73269
36.79702
36.85981
36.89856
36.92478
36.94316
36.95616
36.96526
36.97143
36.9753
36.97732
36.97771
36.97652
36.97362
36.96867
36.96113
36.95022
36.93476
36.91286
36.88119
36.83275
36.76036
36.69851
36.60275
36.44228
36.29779
36.10369
36.29281
36.44188
36.5489
36.6471
36.75097
36.81753
36.86333
36.8957
36.91872
36.93488
36.94583
36.95273
36.95631
36.95701
36.9549
36.94973
36.94092
36.92753
36.90819
36.88089
36.84245
36.78751
36.70548
36.59022
36.49992
36.37326
36.1947
35.92429
36.11485
36.27567
36.39632
36.5145
36.64915
36.7392
36.8025
36.84779
36.8802
36.90305
36.91858
36.92837
36.93346
36.93445
36.93145
36.92412
36.91162
36.89266
36.86536
36.82701
36.77352
36.69827
36.58919
36.44507
36.34031
36.20087
36.01202
35.79843
35.98615
36.14615
36.27036
36.39955
36.55596
36.66495
36.74337
36.80025
36.8413
36.87038
36.8902
36.9027
36.90921
36.91048
36.90665
36.89727
36.88131
36.85714
36.82248
36.77408
36.7073
36.61501
36.48528
36.32276
36.21191
36.07128
35.88474
35.72162
35.89505
36.04066
36.16481
36.30005
36.47129
36.59527
36.68653
36.75365
36.80251
36.83729
36.86107
36.8761
36.88393
36.88545
36.88084
36.86956
36.85039
36.82144
36.78006
36.72268
36.64435
36.53803
36.39289
36.21916
36.10539
35.97016
35.80522
35.6884
35.80174
35.95123
36.07532
36.21281
36.39415
36.53004
36.63216
36.70826
36.7641
36.80406
36.83146
36.8488
36.85784
36.85959
36.85427
36.84126
36.81915
36.78583
36.7384
36.67305
36.58476
36.46686
36.31015
36.13022
36.01577
35.88124
35.74553
35.72754
35.87502
35.99698
36.13505
36.32346
36.46883
36.58015
36.66411
36.72619
36.77082
36.80149
36.82093
36.83107
36.83304
36.82707
36.81248
36.78771
36.75044
36.69758
36.62517
36.52828
36.40083
36.23536
36.05169
35.9383
35.80613
35.65727
35.67685
35.80351
35.92579
36.0646
36.25789
36.41092
36.53016
36.62107
36.68873
36.73755
36.77119
36.79253
36.80367
36.80583
36.79928
36.78325
36.75607
36.71524
36.6575
36.57881
36.4744
36.33895
36.16681
35.98075
35.86692
35.7295
35.61437
35.61276
35.71969
35.84301
35.97965
36.17674
36.33829
36.46673
36.56579
36.64
36.69377
36.7309
36.75448
36.76678
36.76917
36.76193
36.74422
36.7142
36.66919
36.60572
36.51965
36.40644
36.26181
36.08283
35.89673
35.7855
35.67078
35.62953
35.71528
35.84269
36.04303
36.21885
36.36189
36.47331
36.55719
36.61818
36.66036
36.68713
36.70108
36.70379
36.69558
36.67549
36.64139
36.59028
36.5184
36.42134
36.2945
36.1349
35.94476
35.76388
35.6644
35.59007
35.57059
35.69155
35.90058
36.09632
36.25515
36.37854
36.47135
36.53887
36.58552
36.61503
36.63034
36.6333
36.62432
36.60222
36.56456
36.50799
36.42843
36.32104
36.18037
36.00308
35.79282
35.60637
35.53097
35.51819
35.74323
35.96384
36.13956
36.27539
36.37742
36.45158
36.50259
36.53466
36.55119
36.55437
36.5447
36.52076
36.47971
36.41769
36.33024
36.21216
36.0569
35.86047
35.60954
35.40568
35.56394
35.81497
36.00794
36.15761
36.27005
36.35152
36.40714
36.44179
36.45953
36.46293
36.45258
36.42681
36.38226
36.31436
36.21806
36.08791
35.91691
35.70372
35.43412
35.38618
35.63902
35.85112
36.01789
36.1429
36.23301
36.29385
36.33136
36.35043
36.35407
36.34298
36.31519
36.26675
36.19201
36.08514
35.94027
35.74849
35.51444
35.44542
35.66236
35.84744
35.98788
36.08931
36.15657
36.19731
36.21802
36.22191
36.20996
36.17979
36.12685
36.04323
35.92291
35.7603
35.54746
35.29847
35.45889
35.64469
35.79797
35.91401
35.98896
36.03278
36.05561
36.05963
36.04679
36.01384
35.95655
35.86074
35.72605
35.54605
35.35616
35.41238
35.57455
35.70564
35.78577
35.83001
35.85524
35.85728
35.84607
35.80969
35.75299
35.64469
35.51077
35.46569
35.53892
35.57996
35.60761
35.60047
35.59744
35.55285
35.51541
35.38924
35.36169
35.35526
36.78856
36.89386
36.92682
36.94544
36.95729
36.96745
36.97764
36.98403
36.98841
36.99151
36.99372
36.99527
36.99634
36.99701
36.99736
36.99743
36.99722
36.99672
36.99586
36.99456
36.9927
36.99009
36.98641
36.98115
36.97322
36.96162
36.952
36.93722
36.91334
36.86108
36.34105
36.53589
36.65826
36.73694
36.78993
36.83753
36.88696
36.91839
36.94005
36.95543
36.96641
36.97417
36.97946
36.9828
36.98454
36.98488
36.98386
36.98134
36.97708
36.97064
36.96138
36.94838
36.93016
36.90422
36.8654
36.81003
36.76591
36.70163
36.60408
36.44771
36.09165
36.29288
36.44696
36.55733
36.63759
36.71399
36.79758
36.85213
36.89019
36.9174
36.93691
36.9507
36.96013
36.96609
36.9692
36.96981
36.96797
36.96349
36.9559
36.94442
36.92797
36.90491
36.87278
36.82743
36.76072
36.66939
36.60057
36.50657
36.37652
36.188
35.92283
36.11493
36.2815
36.40812
36.50464
36.601
36.71212
36.78695
36.84001
36.87829
36.9059
36.92549
36.93889
36.94738
36.95181
36.95268
36.95006
36.94368
36.93287
36.91656
36.89324
36.86069
36.81566
36.75287
36.66252
36.54425
36.45956
36.34911
36.2038
36.01011
35.79988
35.98622
36.15261
36.28504
36.39031
36.49984
36.63203
36.72398
36.79037
36.8388
36.87396
36.89901
36.91618
36.92708
36.93277
36.93388
36.93052
36.92233
36.90847
36.88759
36.85781
36.81648
36.75978
36.68184
36.57233
36.43484
36.3406
36.22259
36.07392
35.88489
35.74646
35.89509
36.05038
36.18222
36.29195
36.4099
36.55772
36.66378
36.74181
36.79941
36.84152
36.87165
36.89236
36.90551
36.9124
36.91374
36.90968
36.89979
36.88305
36.8579
36.82215
36.7728
36.70572
36.61487
36.49026
36.33952
36.23963
36.11915
35.97524
35.80921
35.80175
35.96233
36.09497
36.20687
36.3297
36.48886
36.60647
36.69458
36.76038
36.80884
36.84366
36.86765
36.88291
36.89091
36.89246
36.88775
36.87627
36.85686
36.82776
36.78652
36.72992
36.65368
36.5519
36.41552
36.25611
36.15327
36.03139
35.88688
35.73579
35.72756
35.88898
36.02002
36.13198
36.25735
36.42476
36.55181
36.64869
36.72182
36.77604
36.81517
36.8422
36.85941
36.86843
36.87019
36.86487
36.85192
36.83004
36.79729
36.75103
36.68788
36.60356
36.49252
36.34696
36.18195
36.0781
35.95715
35.81368
35.65346
35.67689
35.82562
35.95328
36.06444
36.19102
36.3644
36.49934
36.60392
36.68365
36.74313
36.78622
36.81604
36.83506
36.84503
36.84697
36.84109
36.82677
36.80261
36.76651
36.71566
36.64658
36.55504
36.43604
36.2832
36.11468
36.01071
35.89172
35.75306
35.61944
35.61282
35.75878
35.87779
35.98428
36.11001
36.2889
36.43274
36.54636
36.63395
36.69971
36.74753
36.78072
36.80191
36.81302
36.81519
36.80864
36.79268
36.76577
36.72564
36.6693
36.59314
36.49306
36.36484
36.20425
36.03379
35.93218
35.82099
35.68685
35.65526
35.75406
35.85452
35.97788
36.16395
36.32183
36.44959
36.54919
36.62444
36.6794
36.71763
36.74205
36.75485
36.75734
36.74979
36.73141
36.70041
36.65422
36.58961
36.5027
36.38943
36.24665
36.07426
35.90257
35.80503
35.69885
35.60511
35.62092
35.70943
35.83553
36.03265
36.20743
36.34985
36.46108
36.54522
36.60676
36.64956
36.67686
36.69114
36.69391
36.6855
36.66498
36.63029
36.57856
36.50625
36.40915
36.28276
36.12397
35.93567
35.75788
35.65936
35.55967
35.53967
35.67151
35.88712
36.08302
36.24114
36.36449
36.45779
36.52601
36.57334
36.6034
36.61906
36.6221
36.6129
36.59034
36.55205
36.49477
36.41458
36.30693
36.1667
35.98999
35.77775
35.5797
35.48732
35.49824
35.72326
35.94174
36.11691
36.25377
36.35731
36.43288
36.48504
36.51798
36.53504
36.53834
36.52833
36.50369
36.46163
36.39831
36.30937
36.18989
36.03434
35.83867
35.58935
35.38125
35.5287
35.77252
35.96944
36.12245
36.23808
36.32227
36.37995
36.41605
36.43465
36.43823
36.42735
36.40043
36.35414
36.28382
36.18455
36.05107
35.87668
35.65213
35.38897
35.32371
35.5549
35.79186
35.96363
36.09351
36.18832
36.25259
36.29223
36.31256
36.31646
36.3046
36.27512
36.224
36.14505
36.0333
35.88365
35.68564
35.44274
35.31612
35.56485
35.76998
35.91723
36.02508
36.09697
36.14021
36.16246
36.16659
36.1538
36.12155
36.06538
35.97573
35.84904
35.67947
35.47427
35.32004
35.53875
35.70681
35.82662
35.90608
35.95244
35.97673
35.98052
35.96745
35.93222
35.87238