/*--------------------------------*- C++ -*----------------------------------*\
| =========                 |                                                 |
| \\      /  F ield         | OpenFOAM: The Open Source CFD Toolbox           |
|  \\    /   O peration     | Version:  5.x                                   |
|   \\  /    A nd           | Web:      www.OpenFOAM.org                      |
|    \\/     M anipulation  |                                                 |
\*---------------------------------------------------------------------------*/
FoamFile
{
    version     2.0;
    format      ascii;
    class       volScalarField;
    location    "10/gland";
    object      T;
}
// * * * * * * * * * * * * * * * * * * * * * * * * * * * * * * * * * * * * * //

dimensions      [0 0 0 1 0 0 0];

internalField   nonuniform List<scalar> 
202541
(
36.69263
36.74379
36.74517
36.7411
36.23107
36.24425
36.24423
36.25046
35.95977
35.95711
35.97815
35.79584
35.77548
35.81898
35.67828
35.68
36.78042
36.85195
36.88559
36.8958
36.89754
36.89211
36.87243
36.82021
36.68849
36.25052
36.40029
36.50017
36.5308
36.53741
36.51613
36.46346
36.34681
35.96528
36.08595
36.22603
36.2598
36.26645
36.24706
36.17471
36.07159
35.77224
35.90123
36.02462
36.06043
36.06506
36.05254
35.97395
35.87754
35.67071
35.77489
35.8616
35.9063
35.90814
35.89509
35.81571
35.73994
35.5557
35.66783
35.72854
35.77646
35.77986
35.75961
35.68357
35.60446
35.56485
35.60238
35.6627
35.66607
35.64428
35.5994
35.47866
35.46676
35.53508
35.56877
35.56888
35.54453
35.51245
35.43992
35.43192
35.4574
35.48529
35.47794
35.48347
35.43798
35.36303
35.41141
35.4141
35.40273
35.42526
36.8345
36.89147
36.91749
36.9297
36.934
36.93489
36.93227
36.92499
36.90799
36.87698
36.72862
36.38252
36.52687
36.61133
36.66255
36.68088
36.68459
36.67352
36.64229
36.579
36.48377
36.26007
36.09875
36.26419
36.36853
36.43827
36.46316
36.46749
36.45436
36.4089
36.32942
36.20975
35.98882
35.90137
36.06774
36.18362
36.2563
36.28403
36.28774
36.27544
36.22405
36.13949
36.00531
35.81891
35.7494
35.91584
36.03518
36.10535
36.13738
36.14067
36.12728
36.07286
35.98507
35.82156
35.67342
35.6362
35.79511
35.91228
35.97986
36.01592
36.02061
36.00292
35.95028
35.85186
35.69988
35.55141
35.5281
35.69724
35.80736
35.87422
35.91054
35.9163
35.89608
35.84877
35.7499
35.60728
35.46362
35.58414
35.71297
35.7863
35.81633
35.82094
35.80428
35.7588
35.66591
35.52562
35.38565
35.50859
35.6394
35.70537
35.73391
35.7368
35.72373
35.67779
35.5898
35.46226
35.46513
35.54113
35.60637
35.6347
35.63902
35.62028
35.59248
35.49535
35.40371
35.40739
35.43923
35.47309
35.47167
35.44795
35.43014
35.31563
35.28178
35.32674
35.31272
35.30314
35.29072
36.70876
36.85785
36.91314
36.93274
36.94403
36.95047
36.95313
36.95362
36.95212
36.94782
36.93928
36.92543
36.89221
36.82337
36.2048
36.41088
36.59801
36.68009
36.72762
36.7565
36.76861
36.77079
36.76408
36.74442
36.70732
36.64846
36.52313
36.33899
36.11714
36.34918
36.46677
36.5369
36.58034
36.59882
36.60192
36.59213
36.56182
36.50692
36.41939
36.25373
35.9952
35.92495
36.15599
36.29001
36.37514
36.4268
36.44942
36.45293
36.44141
36.40452
36.33857
36.23256
36.05847
35.78375
35.78911
36.00327
36.1436
36.23784
36.29433
36.32052
36.32453
36.3111
36.26989
36.19642
36.07938
35.90875
35.66773
35.67362
35.8759
36.02317
36.1214
36.18049
36.20946
36.21428
36.19858
36.15528
36.07684
35.95577
35.782
35.58106
35.56477
35.76596
35.92092
36.02134
36.08182
36.1116
36.1169
36.10005
36.05657
35.9759
35.85155
35.6493
35.47518
35.44845
35.6782
35.82991
35.93321
35.99479
36.02334
36.02835
36.01235
35.96932
35.88774
35.76197
35.56705
35.41149
35.59615
35.75068
35.85472
35.9158
35.94331
35.94786
35.93286
35.89054
35.80888
35.68014
35.50022
35.3409
35.51178
35.66084
35.76052
35.82055
35.84627
35.85075
35.83601
35.79686
35.71582
35.59877
35.43508
35.36917
35.5042
35.60794
35.66828
35.68959
35.69286
35.68042
35.64517
35.56409
35.45248
35.39389
35.44724
35.50071
35.52693
35.53065
35.51843
35.48186
35.421
35.32152
35.27189
35.36189
35.33736
35.32969
35.33414
35.31236
36.86678
36.916
36.94079
36.9526
36.95935
36.96335
36.96517
36.9655
36.96448
36.96166
36.95641
36.94775
36.93067
36.89865
36.77705
36.39493
36.61017
36.71336
36.76726
36.79871
36.81749
36.82612
36.82766
36.82288
36.80952
36.78499
36.74479
36.66993
36.53319
36.26491
36.12232
36.36793
36.51407
36.59815
36.6489
36.67934
36.69343
36.6959
36.68816
36.66637
36.62674
36.56225
36.45077
36.26291
35.97257
35.91467
36.18029
36.34579
36.44916
36.5142
36.5532
36.5715
36.57467
36.56466
36.53655
36.48569
36.40385
36.27264
36.06414
35.77187
35.77323
36.0328
36.20468
36.31992
36.39499
36.44015
36.4618
36.4656
36.45365
36.42086
36.36185
36.26833
36.12694
35.91741
35.66066
35.6727
35.91003
36.08468
36.20855
36.29024
36.33961
36.36375
36.3681
36.35453
36.31856
36.25394
36.15273
36.00356
35.80216
35.56684
35.56916
35.79815
35.98137
36.11164
36.19777
36.24985
36.27537
36.28007
36.26555
36.22775
36.15947
36.05297
35.89573
35.69348
35.45942
35.4396
35.70043
35.89289
36.02599
36.115
36.16872
36.19463
36.19938
36.18467
36.14601
36.0755
35.96593
35.80584
35.56996
35.38276
35.62296
35.81388
35.94937
36.03974
36.09419
36.12
36.12468
36.11013
36.07126
35.99964
35.88834
35.72761
35.49787
35.32398
35.51583
35.72168
35.85868
35.94875
36.0032
36.0283
36.03285
36.0187
35.98044
35.90867
35.79774
35.6328
35.42845
35.38265
35.57423
35.71433
35.80295
35.85661
35.87963
35.88359
35.87095
35.83425
35.76385
35.65358
35.47658
35.2916
35.42687
35.56399
35.64966
35.70289
35.7256
35.72829
35.71796
35.68005
35.61534
35.49008
35.3152
35.31485
35.39971
35.48669
35.54204
35.55146
35.54972
35.55047
35.51731
35.44705
35.337
35.33022
35.36244
35.34358
35.34112
35.35718
35.34112
35.30009
36.84305
36.91574
36.94207
36.95655
36.9646
36.96935
36.97216
36.97351
36.97375
36.97299
36.97096
36.96727
36.96115
36.95037
36.9312
36.89186
36.73974
36.38963
36.60614
36.72007
36.78575
36.82371
36.84655
36.86011
36.86664
36.86783
36.86415
36.85433
36.83655
36.80734
36.7574
36.67164
36.52055
36.25942
36.10077
36.36662
36.52743
36.6281
36.68993
36.72822
36.7511
36.76218
36.7642
36.75796
36.74135
36.71142
36.6629
36.58383
36.4565
36.2526
35.97365
35.9089
36.17988
36.36495
36.48758
36.56711
36.61783
36.64834
36.66321
36.66593
36.65753
36.63532
36.59549
36.53186
36.43279
36.28174
36.05714
35.77967
35.76732
36.0308
36.22704
36.3638
36.45638
36.51677
36.5533
36.57127
36.57459
36.56438
36.5377
36.49009
36.41494
36.30187
36.13744
35.9087
35.6267
35.63447
35.90388
36.10768
36.25497
36.35747
36.42513
36.46624
36.48661
36.49041
36.47877
36.44869
36.39517
36.31135
36.1876
36.01404
35.77872
35.48956
35.49054
35.78182
36.002
36.15925
36.26914
36.34209
36.3865
36.40854
36.41268
36.40004
36.36756
36.30975
36.21962
36.08734
35.90228
35.6284
35.39563
35.68181
35.91094
36.07495
36.18968
36.26629
36.31296
36.33601
36.34034
36.32713
36.29309
36.23232
36.13791
36.00021
35.80638
35.53297
35.35949
35.60402
35.83125
35.99889
36.11719
36.19623
36.24433
36.2679
36.27231
36.25884
36.22389
36.16119
36.06381
35.92236
35.72651
35.46178
35.49253
35.7318
35.90678
36.02922
36.1102
36.15932
36.18304
36.18745
36.17397
36.13852
36.07435
35.9742
35.82723
35.62418
35.36119
35.34932
35.57249
35.7608
35.88898
35.97144
36.02105
36.04416
36.04829
36.03547
36.0001
35.93518
35.83199
35.67478
35.45819
35.20864
35.42471
35.62141
35.74526
35.82841
35.87867
35.90059
35.90385
35.89285
35.85736
35.79244
35.68892
35.53234
35.31118
35.31731
35.46048
35.58597
35.67507
35.7257
35.74095
35.7421
35.73674
35.70441
35.63644
35.53244
35.40245
35.25933
35.40782
35.50461
35.55172
35.55526
35.5539
35.55727
35.52764
35.45361
35.35566
35.29438
35.35118
35.32188
35.30708
35.33267
35.33984
35.27961
36.79296
36.91464
36.94248
36.95765
36.96706
36.97285
36.97642
36.97855
36.97961
36.9798
36.9792
36.97765
36.97486
36.97032
36.96293
36.95101
36.93122
36.8855
36.31333
36.60215
36.72081
36.79111
36.83565
36.86354
36.88096
36.89139
36.89654
36.89751
36.89456
36.88694
36.87332
36.85128
36.81598
36.76008
36.67063
36.50154
36.02541
36.35106
36.5263
36.63744
36.71015
36.75708
36.78692
36.8049
36.81382
36.8155
36.81039
36.79722
36.77379
36.73631
36.67776
36.58785
36.44959
36.221
35.82491
36.15077
36.36052
36.49994
36.59393
36.65639
36.69683
36.72135
36.73358
36.73589
36.72887
36.71088
36.67899
36.62854
36.55172
36.43718
36.26706
36.00027
35.65771
35.98517
36.21822
36.37763
36.48787
36.56285
36.61209
36.6421
36.65713
36.65998
36.65133
36.62928
36.59033
36.52925
36.43802
36.30536
36.11372
35.81144
35.52792
35.84221
36.09383
36.2687
36.39183
36.47688
36.53321
36.56767
36.58499
36.58828
36.5783
36.55294
36.50828
36.43864
36.33589
36.18908
35.98068
35.67721
35.44908
35.73322
35.98529
36.17194
36.30527
36.39816
36.46003
36.49796
36.51704
36.52068
36.50967
36.48176
36.43263
36.35632
36.24455
36.08654
35.8679
35.57497
35.35775
35.64167
35.89292
36.08649
36.22711
36.32584
36.3919
36.43244
36.4528
36.45669
36.44494
36.41514
36.36264
36.28132
36.16294
35.9974
35.77395
35.49233
35.55029
35.80867
36.00877
36.15526
36.25863
36.32786
36.37032
36.39156
36.3956
36.38338
36.35222
36.29721
36.212
36.08832
35.91667
35.68366
35.38999
35.44734
35.70469
35.91292
36.06706
36.1757
36.24809
36.29234
36.31429
36.31845
36.30587
36.27352
36.21609
36.12678
35.99661
35.81683
35.57695
35.31243
35.26316
35.53758
35.76079
35.92692
36.0423
36.11809
36.16404
36.18636
36.19049
36.1779
36.14459
36.08473
35.99063
35.851
35.65784
35.39347
35.38502
35.62156
35.78999
35.90725
35.98528
36.03243
36.05424
36.05798
36.04623
36.01255
35.95102
35.85463
35.71244
35.51643
35.23819
35.27319
35.46151
35.63614
35.76045
35.84201
35.88975
35.90882
35.91159
35.90236
35.86988
35.80616
35.70495
35.55809
35.35723
35.26936
35.44597
35.59599
35.6806
35.72765
35.74167
35.74271
35.73798
35.70762
35.6424
35.53218
35.3704
35.26528
35.41966
35.49492
35.54096
35.54499
35.53993
35.54628
35.51951
35.45044
35.36897
35.27626
35.32728
35.30796
35.3029
35.31604
35.30672
35.26257
36.73249
36.89841
36.94029
36.95753
36.9678
36.97452
36.9789
36.98169
36.98338
36.98423
36.9844
36.98391
36.98266
36.98046
36.97696
36.97153
36.96324
36.95024
36.92526
36.84746
36.24849
36.54425
36.70943
36.7897
36.83913
36.87171
36.89309
36.90683
36.91517
36.91936
36.92017
36.91774
36.91161
36.90079
36.88359
36.85715
36.8171
36.75517
36.64473
36.40368
35.97243
36.27691
36.50373
36.63299
36.71572
36.77106
36.80787
36.83177
36.84632
36.85366
36.85507
36.85083
36.84011
36.82124
36.79147
36.74624
36.67867
36.57634
36.40784
36.12037
35.78097
36.0742
36.32668
36.49153
36.60082
36.67518
36.72539
36.75832
36.77846
36.78866
36.79061
36.78472
36.76986
36.74379
36.70294
36.64171
36.55162
36.41817
36.21214
35.92449
35.91102
36.17733
36.36569
36.4954
36.58535
36.64693
36.68767
36.7127
36.72539
36.72783
36.72049
36.702
36.66967
36.61931
36.54469
36.43664
36.28063
36.05332
35.74495
35.77632
36.05135
36.25428
36.39943
36.50202
36.57309
36.62043
36.6496
36.66442
36.66728
36.65869
36.63714
36.5995
36.54115
36.45548
36.33325
36.16137
35.92362
35.6108
35.63424
35.94296
36.15578
36.31248
36.42516
36.50396
36.55672
36.58931
36.60588
36.60908
36.59948
36.57539
36.53338
36.46849
36.37388
36.24062
36.05751
35.80918
35.49166
35.54019
35.84621
36.06765
36.23343
36.35412
36.43915
36.4963
36.53163
36.54959
36.55306
36.54266
36.51655
36.47102
36.40084
36.29908
36.15715
35.96492
35.707
35.40218
35.45747
35.75669
35.98614
36.16016
36.28768
36.37788
36.43859
36.47611
36.49515
36.49882
36.48782
36.46012
36.41175
36.33723
36.22945
36.07998
35.87885
35.61385
35.33022
35.36152
35.65053
35.88618
36.06976
36.20524
36.30123
36.36573
36.4055
36.4256
36.42946
36.41788
36.38858
36.33725
36.25801
36.14333
35.98501
35.77434
35.49284
35.20256
35.45322
35.72701
35.9263
36.07286
36.17634
36.24548
36.28786
36.30899
36.313
36.30094
36.26991
36.21504
36.12987
36.0059
35.83462
35.60379
35.33772
35.28742
35.57769
35.7883
35.94101
36.04973
36.12251
36.1668
36.18823
36.19217
36.18021
36.14815
36.09053
36.00088
35.87103
35.6927
35.42132
35.14841
35.13427
35.41656
35.63333
35.79497
35.91229
35.98943
36.03517
36.0559
36.05948
36.04839
36.01612
35.9557
35.85965
35.72068
35.53223
35.28712
35.21694
35.4398
35.62614
35.75794
35.83935
35.88585
35.90491
35.90772
35.89842
35.86658
35.80383
35.6996
35.54119
35.34541
35.26322
35.43797
35.58262
35.6661
35.71213
35.72899
35.72994
35.72397
35.69276
35.62896
35.52251
35.36096
35.23694
35.381
35.46042
35.50211
35.52403
35.52353
35.5193
35.48399
35.41766
35.30722
35.24694
35.28044
35.26588
35.25439
35.27653
35.25773
36.7144
36.88303
36.93346
36.95522
36.96725
36.9749
36.98005
36.9835
36.98575
36.98713
36.98784
36.98797
36.98757
36.98655
36.98476
36.98196
36.97774
36.97148
36.962
36.94616
36.91517
36.8106
36.2436
36.4912
36.67873
36.7781
36.83606
36.87347
36.89873
36.91573
36.92688
36.93371
36.9372
36.93787
36.93585
36.9308
36.92197
36.90815
36.88738
36.8567
36.81059
36.73572
36.60266
36.34002
35.96603
36.17717
36.45571
36.61207
36.70947
36.77378
36.81759
36.84729
36.86686
36.87889
36.88503
36.88622
36.88266
36.87376
36.85824
36.83402
36.79788
36.74487
36.66623
36.54358
36.34359
36.05228
35.7777
35.97987
36.26857
36.46252
36.59121
36.67844
36.73861
36.77976
36.80703
36.82386
36.83246
36.83413
36.82914
36.81668
36.79501
36.76134
36.71147
36.63906
36.53348
36.37551
36.13777
35.84437
35.8193
36.11461
36.3315
36.48298
36.58884
36.66299
36.71421
36.74836
36.76949
36.78032
36.78242
36.77614
36.76048
36.73329
36.69125
36.62945
36.5408
36.41429
36.23268
35.97369
35.66694
35.7013
35.98632
36.21708
36.38485
36.50549
36.59137
36.65126
36.69141
36.71633
36.72911
36.7316
36.72418
36.70571
36.67369
36.62437
36.55242
36.45045
36.30806
36.1107
35.84453
35.57062
35.59544
35.87171
36.1152
36.29578
36.42827
36.52391
36.59115
36.63644
36.6646
36.67906
36.68187
36.67349
36.6526
36.61644
36.56093
36.48043
36.36757
36.21265
36.00226
35.72991
35.47198
35.47116
35.76908
36.02311
36.21416
36.3565
36.4603
36.53374
36.58337
36.61428
36.63014
36.63323
36.62404
36.60111
36.56146
36.50071
36.41302
36.29109
36.12583
35.9049
35.59931
35.38829
35.67749
35.9385
36.13812
36.28902
36.39986
36.4786
36.53191
36.56512
36.58215
36.58547
36.57561
36.551
36.5084
36.44318
36.34932
36.21953
36.04534
35.81645
35.51354
35.30859
35.57451
35.83535
36.04432
36.20511
36.324
36.40871
36.46609
36.50181
36.52008
36.52364
36.51308
36.48665
36.44081
36.37062
36.26975
36.13093
35.94646
35.71035
35.43498
35.38912
35.66472
35.89417
36.07032
36.20037
36.29313
36.35588
36.39479
36.41455
36.41837
36.40703
36.37834
36.3283
36.25148
36.14104
35.98924
35.78646
35.53252
35.26037
35.20914
35.49058
35.74762
35.93698
36.07563
36.17516
36.24246
36.2839
36.30457
36.30851
36.29678
36.26647
36.21295
36.13046
36.01231
35.85047
35.62702
35.34619
35.31323
35.59106
35.79009
35.93908
36.04707
36.11926
36.16289
36.18397
36.18788
36.17615
36.14469
36.08776
35.99862
35.87079
35.69819
35.46502
35.16721
35.17589
35.39654
35.61821
35.78381
35.90276
35.97988
36.02537
36.04645
36.05016
36.0388
36.00652
35.94641
35.84982
35.70759
35.51689
35.29025
35.19871
35.42191
35.60888
35.736
35.81743
35.86438
35.88559
35.88889
35.8781
35.84495
35.78209
35.68069
35.52396
35.32751
35.2265
35.40272
35.53489
35.62153
35.67051
35.69346
35.69662
35.6858
35.65024
35.58542
35.48245
35.33029
35.30483
35.37271
35.43301
35.44862
35.45411
35.4468
35.39874
35.34534
35.26481
35.1515
35.20279
35.20403
35.19562
36.71782
36.87275
36.92205
36.95042
36.96512
36.97417
36.98018
36.98429
36.98709
36.98896
36.99011
36.9907
36.99082
36.99047
36.98962
36.98814
36.98584
36.98244
36.97748
36.97016
36.95875
36.93915
36.89805
36.82154
36.26284
36.47229
36.62926
36.75518
36.82553
36.86975
36.8993
36.91961
36.93351
36.94274
36.94846
36.9514
36.95198
36.95027
36.94603
36.93869
36.92731
36.91048
36.886
36.85006
36.79477
36.70308
36.54409
36.36962
35.99919
36.19919
36.38459
36.57477
36.69113
36.76696
36.81842
36.85403
36.87851
36.89481
36.90493
36.91014
36.91116
36.90814
36.90063
36.88765
36.86758
36.83799
36.79521
36.733
36.63955
36.49263
36.27963
36.09424
35.82116
36.00062
36.19211
36.41607
36.56641
36.66866
36.7395
36.78902
36.82328
36.84619
36.86043
36.86778
36.86922
36.86496
36.85438
36.83612
36.80796
36.76668
36.70744
36.62251
36.49871
36.31554
36.07739
35.90507
35.71624
35.82228
36.03679
36.27966
36.45341
36.5765
36.6638
36.72562
36.76869
36.79763
36.81567
36.82499
36.82681
36.82141
36.80801
36.78491
36.74941
36.69766
36.62413
36.5205
36.3741
36.16839
35.91301
35.76911
35.63775
35.70677
35.91122
36.16147
36.35155
36.49093
36.59195
36.66443
36.71531
36.74966
36.77112
36.7822
36.78438
36.77795
36.76201
36.73455
36.69251
36.63159
36.54586
36.42707
36.26382
36.04452
35.79084
35.6589
35.61235
35.79848
36.05514
36.25885
36.41152
36.52405
36.60569
36.66341
36.70252
36.72701
36.73967
36.74216
36.73482
36.71662
36.68532
36.63753
36.56863
36.47255
36.34124
36.1642
35.9329
35.68727
35.56275
35.51749
35.69562
35.95934
36.17392
36.33748
36.45978
36.54933
36.61299
36.65628
36.68341
36.69746
36.70022
36.69208
36.67191
36.63724
36.58443
36.50863
36.40365
36.26186
36.07379
35.83179
35.56671
35.46071
35.41052
35.60293
35.87351
36.09529
36.26776
36.39853
36.49498
36.56385
36.61077
36.64022
36.65545
36.65845
36.64963
36.62775
36.59015
36.53295
36.4511
36.33839
36.18768
35.99121
35.74384
35.47886
35.35722
35.50462
35.76854
35.99818
36.1809
36.32149
36.4259
36.50072
36.55179
36.58385
36.60042
36.60368
36.5941
36.5703
36.52937
36.46717
36.37837
36.25672
36.09562
35.88982
35.63521
35.40144
35.3095
35.59504
35.83928
36.0401
36.19572
36.31146
36.39465
36.45148
36.48709
36.50541
36.50901
36.49847
36.4721
36.4266
36.35739
36.2588
36.12407
35.94597
35.72284
35.4425
35.39477
35.67654
35.89937
36.06913
36.19476
36.28538
36.34724
36.3858
36.40544
36.40927
36.39805
36.36964
36.32022
36.24481
36.1376
35.99132
35.79501
35.55053
35.25495
35.21975
35.49527
35.74798
35.93129
36.06764
36.16642
36.23341
36.27467
36.29533
36.29932
36.28763
36.25749
36.20427
36.12224
36.00548
35.84726
35.63303
35.35826
35.32205
35.57668
35.77377
35.92361
36.03182
36.10406
36.1479
36.16943
36.17351
36.16149
36.12974
36.07277
35.98361
35.8551
35.68239
35.46022
35.18329
35.14795
35.37094
35.59259
35.75751
35.87488
35.95232
35.99876
36.02138
36.02552
36.01309
35.97954
35.91883
35.823
35.682
35.49185
35.26566
35.14816
35.37346
35.55633
35.6854
35.76889
35.81871
35.84331
35.84765
35.83441
35.79799
35.73314
35.62855
35.47529
35.28695
35.30603
35.4569
35.54232
35.59675
35.62596
35.63064
35.61612
35.5746
35.50271
35.38259
35.19
35.20733
35.28485
35.32105
35.38052
35.38244
35.34574
35.31084
35.26529
36.77561
36.87863
36.91865
36.94236
36.96139
36.9723
36.97941
36.98426
36.98763
36.98996
36.99153
36.9925
36.99301
36.99311
36.99282
36.99209
36.99084
36.98892
36.98611
36.98207
36.97623
36.96749
36.95346
36.92955
36.90293
36.83548
36.68839
36.29869
36.49095
36.61994
36.71842
36.80755
36.86056
36.89547
36.91944
36.93616
36.94774
36.95551
36.96036
36.96288
36.96338
36.96192
36.95831
36.95211
36.94258
36.92864
36.90863
36.8798
36.83707
36.76975
36.66343
36.56375
36.39315
36.02916
36.22521
36.3814
36.51906
36.66131
36.75108
36.81161
36.85364
36.88314
36.90363
36.91742
36.92604
36.93052
36.9314
36.92881
36.9224
36.91139
36.8945
36.86987
36.83465
36.78433
36.71095
36.59939
36.44007
36.31047
36.12033
35.84861
36.03664
36.19545
36.35003
36.52789
36.6471
36.72991
36.78834
36.8297
36.85857
36.87805
36.89026
36.89659
36.89785
36.89418
36.88511
36.86953
36.84571
36.81106
36.76188
36.69239
36.59323
36.44864
36.25906
36.12227
35.93355
35.71708
35.9013
36.04713
36.20829
36.40875
36.55032
36.65173
36.72459
36.77668
36.81327
36.83803
36.85358
36.86166
36.86326
36.85859
36.84702
36.8272
36.79695
36.75317
36.69148
36.60551
36.48568
36.31782
36.11142
35.97902
35.80358
35.66382
35.79413
35.92526
36.08835
36.30236
36.46088
36.57764
36.66296
36.72461
36.76819
36.7978
36.81642
36.82611
36.82803
36.82243
36.80857
36.78485
36.74875
36.69675
36.62407
36.52413
36.38786
36.2037
35.98984
35.85866
35.7251
35.68132
35.82189
35.98269
36.20596
36.37802
36.50759
36.60368
36.67378
36.72363
36.75761
36.77902
36.79017
36.79239
36.78594
36.77001
36.74275
36.70138
36.64206
36.55977
36.44795
36.29822
36.10152
35.88527
35.75558
35.61877
35.59298
35.72833
35.8876
36.11814
36.30094
36.44121
36.54665
36.62421
36.67965
36.71755
36.74148
36.75394
36.75642
36.74922
36.73141
36.70098
36.65489
36.58907
36.49836
36.3764
36.21568
36.00929
35.78976
35.66616
35.5267
35.54478
35.64082
35.80116
36.03725
36.22851
36.37789
36.49154
36.57573
36.63616
36.67758
36.70375
36.71739
36.72011
36.71223
36.69275
36.65948
36.60918
36.53756
36.4394
36.30863
36.13888
35.92514
35.70315
35.57586
35.52319
35.42835
35.53075
35.69661
35.93694
36.13797
36.29804
36.42134
36.51328
36.57954
36.62506
36.65386
36.66886
36.67185
36.6632
36.64178
36.6052
36.54997
36.47159
36.36468
36.22355
36.04328
35.82134
35.59682
35.48684
35.37554
35.52085
35.7691
35.98864
36.16662
36.30474
36.40808
36.48281
36.53425
36.56677
36.58369
36.58706
36.57734
36.55319
36.51187
36.44951
36.36125
36.24129
36.08356
35.88477
35.64493
35.41245
35.33001
35.33836
35.58661
35.83501
36.03327
36.18581
36.29957
36.382
36.43874
36.47449
36.49297
36.49665
36.48608
36.45963
36.41413
36.34531
36.24805
36.11593
35.94085
35.71914
35.43557
35.23554
35.37971
35.66872
35.88933
36.0565
36.18119
36.27168
36.33371
36.3725
36.39237
36.3963
36.385
36.35645
36.30688
36.23145
36.12471
35.98003
35.78696
35.54203
35.2207
35.20876
35.48389
35.72671
35.90934
36.04662
36.14614
36.21374
36.2556
36.27682
36.28099
36.269
36.23835
36.1846
36.10198
35.98431
35.82552
35.61537
35.35003
35.2802
35.53339
35.73653
35.8888
35.99865
36.07241
36.11763
36.14044
36.14487
36.13205
36.09902
36.04068
35.95001
35.81955
35.64341
35.39314
35.13125
35.30074
35.5225
35.69552
35.82034
35.9018
35.9511
35.97616
35.98095
35.96694
35.93072
35.86699
35.76519
35.61636
35.4053
35.14342
35.2682
35.45857
35.60267
35.69365
35.74738
35.77668
35.78182
35.76588
35.72491
35.65557
35.53697
35.36177
35.13996
35.1912
35.34554
35.44773
35.49757
35.53742
35.53906
35.52236
35.46956
35.39799
35.26873
35.18814
35.2091
35.25699
35.21434
35.24197
35.17621
36.81785
36.88703
36.92079
36.94032
36.95532
36.96928
36.97778
36.98351
36.9875
36.99032
36.99229
36.99362
36.99446
36.9949
36.99499
36.99473
36.99411
36.99304
36.99142
36.98906
36.9857
36.98093
36.97399
36.96332
36.94689
36.93189
36.90603
36.86414
36.71344
36.34646
36.5054
36.63074
36.71116
36.77898
36.84585
36.88746
36.91571
36.93551
36.9495
36.9593
36.96593
36.9701
36.97228
36.97271
36.97146
36.96835
36.96305
36.95496
36.94323
36.92658
36.90298
36.86888
36.81702
36.74034
36.67533
36.57518
36.40786
36.25823
36.04849
36.24464
36.40009
36.51211
36.61553
36.72615
36.79768
36.84705
36.88195
36.90674
36.92413
36.93593
36.94336
36.94724
36.94801
36.94578
36.94025
36.9308
36.91642
36.89562
36.86619
36.82473
36.76554
36.67768
36.55567
36.46086
36.32855
36.1428
35.85542
36.05289
36.2203
36.34623
36.47044
36.61388
36.71075
36.77908
36.82795
36.86291
36.88752
36.90426
36.91482
36.92034
36.92144
36.91826
36.91041
36.89699
36.87661
36.84721
36.80584
36.74807
36.66691
36.54998
36.39753
36.2878
36.14252
35.9462
35.71823
35.91354
36.07942
36.20844
36.34394
36.51067
36.62808
36.71286
36.77435
36.81869
36.85006
36.87145
36.88497
36.89203
36.89345
36.88938
36.87932
36.86217
36.83615
36.79876
36.74646
36.67422
36.57453
36.43527
36.26346
36.14778
36.00201
35.80821
35.63482
35.81436
35.96355
36.09183
36.2335
36.4163
36.55012
36.64897
36.72168
36.77455
36.81216
36.83787
36.85415
36.86267
36.86438
36.85947
36.84736
36.82672
36.79548
36.75076
36.68863
36.60373
36.48864
36.33255
36.14884
36.03044
35.89146
35.72218
35.59794
35.7107
35.86359
35.99158
36.13559
36.32963
36.47668
36.58755
36.67018
36.73076
36.77407
36.80377
36.8226
36.83247
36.83445
36.82877
36.81476
36.7909
36.75487
36.70348
36.63254
36.53662
36.40869
36.2397
36.04917
35.9302
35.79223
35.655
35.62609
35.77741
35.90256
36.04712
36.24945
36.40727
36.52846
36.61987
36.6874
36.73591
36.76926
36.79044
36.80154
36.80378
36.79739
36.78163
36.75481
36.7144
36.65697
36.57816
36.47261
36.33391
36.15481
35.9599
35.84241
35.7074
35.55281
35.57259
35.69606
35.82007
35.96561
36.17427
36.34109
36.4713
36.57058
36.6444
36.69763
36.73433
36.75766
36.76989
36.77236
36.76533
36.74797
36.71845
36.67404
36.61112
36.52522
36.41112
36.26318
36.07595
35.87768
35.7602
35.62325
35.51217
35.49068
35.59354
35.72032
35.86518
36.08014
36.25741
36.39835
36.50698
36.58827
36.64714
36.68782
36.71371
36.7273
36.73005
36.72225
36.70298
36.67024
36.62107
36.55163
36.45729
36.33302
36.17418
35.97785
35.77723
35.6611
35.54658
35.47294
35.56103
35.69886
35.92232
36.11793
36.2764
36.39953
36.49207
36.55935
36.60596
36.63566
36.65123
36.65439
36.64547
36.62341
36.58589
36.52961
36.4504
36.34321
36.20278
36.02549
35.81317
35.61327
35.50777
35.4338
35.38155
35.51543
35.75282
35.97366
36.15117
36.2885
36.39159
36.46664
36.51867
36.55175
36.56906
36.57256
36.5627
36.53817
36.49634
36.43353
36.34522
36.22581
36.06883
35.86966
35.63069
35.4209
35.34197
35.30807
35.56595
35.81796
36.0154
36.16732
36.28136
36.36443
36.42187
36.45822
36.47713
36.48096
36.47022
36.44336
36.39729
36.32783
36.23007
36.09804
35.92393
35.70137
35.41077
35.17255
35.35455
35.64411
35.86114
36.02903
36.15543
36.24745
36.3107
36.35044
36.37098
36.37513
36.36351
36.33425
36.28369
36.20694
36.09852
35.95234
35.76029
35.51802
35.19962
35.13973
35.43816
35.67775
35.86544
36.00676
36.10944
36.17938
36.22291
36.2453
36.24979
36.23716
36.20519
36.14956
36.06423
35.94299
35.77962
35.56355
35.29459
35.21233
35.45768
35.66626
35.82611
35.94292
36.02115
36.06907
36.09373
36.09862
36.08473
36.04951
35.98791
35.89135
35.75354
35.56956
35.329
35.04751
35.21936
35.42809
35.60532
35.741
35.82918
35.88144
35.90912
35.91433
35.89894
35.85987
35.79226
35.68015
35.52331
35.31719
35.10593
35.15793
35.34747
35.50307
35.59811
35.65156
35.68314
35.68674
35.67168
35.62816
35.55993
35.43156
35.27389
35.23161
35.32052
35.37003
35.40555
35.40141
35.39079
35.33949
35.28841
35.13679
35.12817
35.12795
36.77563
36.88703
36.92166
36.9412
36.95366
36.96436
36.9752
36.98206
36.98678
36.99013
36.99252
36.9942
36.99535
36.99608
36.99646
36.99653
36.99632
36.99578
36.99486
36.99346
36.99145
36.98862
36.98465
36.97899
36.97051
36.95824
36.9481
36.93258
36.90751
36.85247
36.2988
36.50541
36.63391
36.71645
36.7721
36.82226
36.87483
36.90857
36.93193
36.94854
36.96042
36.9688
36.97452
36.97814
36.98004
36.98042
36.97933
36.97664
36.97206
36.96512
36.95512
36.94107
36.92139
36.89345
36.85191
36.79333
36.74691
36.67946
36.57709
36.41256
36.02934
36.24475
36.4067
36.52237
36.60655
36.68699
36.77591
36.83453
36.87561
36.90501
36.92611
36.94103
36.95122
36.95769
36.96108
36.96177
36.95982
36.95502
36.94685
36.93447
36.91669
36.89177
36.85704
36.80815
36.73674
36.64015
36.5678
36.46927
36.33287
36.13366
35.84886
36.05303
36.22794
36.36046
36.46154
36.56291
36.68116
36.76166
36.81899
36.86041
36.89029
36.91149
36.92601
36.93522
36.94006
36.94104
36.93827
36.93142
36.91978
36.90218
36.87695
36.84174
36.79301
36.72523
36.62843
36.50337
36.41445
36.29886
36.1466
35.94236
35.71734
35.91367
36.08783
36.22608
36.33611
36.45124
36.59203
36.69108
36.76294
36.81543
36.85353
36.88068
36.8993
36.91114
36.91737
36.91864
36.91507
36.90627
36.89131
36.86875
36.83651
36.79173
36.73027
36.646
36.52852
36.38312
36.2843
36.16111
36.00572
35.80734
35.66401
35.81446
35.97571
36.1128
36.22727
36.35122
36.50888
36.62336
36.70799
36.77052
36.81624
36.84894
36.87144
36.88576
36.8933
36.89484
36.89053
36.87988
36.8618
36.83458
36.79581
36.74223
36.66938
36.57094
36.43702
36.2775
36.17286
36.04745
35.89782
35.72626
35.71079
35.87773
36.01546
36.13205
36.26115
36.43128
36.55853
36.65433
36.72594
36.77866
36.81653
36.84265
36.8593
36.86807
36.86987
36.86485
36.85247
36.83147
36.7999
36.75509
36.6935
36.6105
36.49995
36.353
36.18408
36.0764
35.94973
35.79959
35.64245
35.62625
35.795
35.93065
36.04703
36.17891
36.35842
36.49635
36.60196
36.68175
36.7409
36.78356
36.81305
36.83188
36.84181
36.84384
36.83817
36.82417
36.80045
36.76484
36.71445
36.64556
36.55351
36.43255
36.27514
36.0999
35.99125
35.86593
35.71696
35.54633
35.57291
35.72307
35.85368
35.96894
36.10242
36.28921
36.43628
36.55063
36.63788
36.70293
36.75003
36.78267
36.80353
36.81454
36.81679
36.81051
36.79501
36.76874
36.72938
36.67384
36.59826
36.49805
36.36795
36.20191
36.02221
35.9134
35.79087
35.64965
35.51792
35.49124
35.64088
35.76289
35.87386
36.00744
36.20178
36.35952
36.48433
36.58054
36.65272
36.7052
36.74165
36.76499
36.77732
36.77985
36.77283
36.75549
36.72613
36.68221
36.62045
36.53682
36.4268
36.28586
36.1101
35.92674
35.81973
35.70482
35.56774
35.50515
35.60879
35.71548
35.84897
36.05478
36.23017
36.37181
36.48199
36.56513
36.62584
36.66814
36.69527
36.7096
36.71255
36.70441
36.68428
36.6502
36.59932
36.52803
36.43194
36.30639
36.14772
35.95604
35.76772
35.66309
35.55076
35.45301
35.44324
35.53748
35.67682
35.89886
36.09567
36.25496
36.37884
36.47239
36.54083
36.58856
36.61915
36.6353
36.63864
36.6295
36.60683
36.56839
36.51101
36.4307
36.32264
36.18144
36.00299
35.79012
35.59117
35.48397
35.37614
35.32385
35.47831
35.72594
35.94937
36.12745
36.26556
36.36987
36.44625
36.49945
36.53345
36.55134
36.55504
36.54495
36.51981
36.47704
36.41302
36.32341
36.20294
36.04537
35.84486
35.60085
35.37164
35.26449
35.26944
35.53175
35.7838
35.98201
36.13585
36.25222
36.3374
36.39652
36.43411
36.4538
36.45787
36.44679
36.41908
36.37166
36.30036
36.20034
36.06604
35.89058
35.66698
35.37626
35.13463
35.30049
35.58581
35.80985
35.98244
36.11307
36.20868
36.27463
36.31623
36.33791
36.34238
36.33019
36.29959
36.2469
36.16703
36.05467
35.90401
35.70656
35.44778
35.13967
35.05984
35.33301
35.60322
35.79732
35.94495
36.05362
36.12782
36.17397
36.19796
36.20285
36.18937
36.15545
36.09663
36.00606
35.87852
35.70895
35.48454
35.20447
35.05484
35.33968
35.5716
35.74066
35.86572
35.94961
36.00054
36.02716
36.03246
36.01755
35.97995
35.91453
35.81046
35.6642
35.47069
35.24233
35.04939
35.30325
35.49799
35.63877
35.73254
35.78772
35.81734
35.82258
35.80655
35.76504
35.69429
35.57437
35.41451