
17308
(
(-0.007483509 0.0002388773 -0.07159532)
(-0.007455669 0.001197184 -0.07158642)
(0.005391719 0.004095306 -0.07165946)
(0.005089014 0.006211804 -0.0713127)
(-0.01612808 0.0002362249 -0.07016747)
(0.01814344 0.0002331676 -0.06966603)
(-0.0161198 0.001188409 -0.07015685)
(0.01802529 0.001222142 -0.0696877)
(-0.01634844 0.002174577 -0.07000982)
(-0.01614887 0.003131733 -0.07000811)
(0.0140516 0.00316558 -0.07037224)
(-0.01623855 0.004112822 -0.07001021)
(0.0140694 0.004113279 -0.07048698)
(-0.01621973 0.005074782 -0.06995122)
(0.01404086 0.005074966 -0.07042969)
(-0.0161952 0.006031138 -0.06988103)
(0.01401812 0.006031535 -0.07035883)
(-0.01614764 0.006986174 -0.06980345)
(0.01396782 0.006986195 -0.07027964)
(-0.0159489 0.007935105 -0.06972884)
(0.01374356 0.007919694 -0.07007833)
(-0.01202416 0.008926003 -0.07038093)
(0.01417077 0.008944547 -0.06995708)
(-0.01180282 0.009874435 -0.07027132)
(0.01403093 0.009897188 -0.06990924)
(-0.01156283 0.01082981 -0.07015403)
(0.009899384 0.01087452 -0.07029577)
(0.01389525 0.01084296 -0.06979137)
(-0.01155581 0.01178265 -0.06988857)
(0.009647522 0.01176988 -0.07005399)
(0.01306953 0.01171482 -0.06968036)
(-0.01181873 0.01280345 -0.06981753)
(-0.007714575 0.0127725 -0.07030239)
(0.009516397 0.01278963 -0.07017947)
(-0.01089524 0.01370139 -0.06956337)
(-0.007315891 0.01379226 -0.07001451)
(0.005405382 0.01384466 -0.07026741)
(0.009317939 0.01378329 -0.06974039)
(-0.007180574 0.01516335 -0.06983534)
(-0.003117223 0.01523021 -0.07029269)
(0.001049825 0.01525657 -0.07034875)
(0.005206138 0.01521205 -0.07008857)
(0.008813286 0.01506175 -0.06967017)
(-0.003154067 0.01722109 -0.06982888)
(0.001041391 0.01701054 -0.06994502)
(0.005323471 0.01712154 -0.06971893)
(0.0230088 0.0002421423 -0.06821307)
(0.0229395 0.00120356 -0.06822407)
(0.02288113 0.002169502 -0.06822015)
(0.02279016 0.003140655 -0.06821398)
(0.02274813 0.004109798 -0.06817684)
(0.02272106 0.005075737 -0.06812087)
(0.02268231 0.0060356 -0.06805541)
(0.02252206 0.006997783 -0.06801483)
(-0.02059481 0.007985816 -0.0685232)
(0.02252698 0.007966616 -0.0679075)
(-0.0204997 0.00891968 -0.06843616)
(0.02244702 0.008903477 -0.06781786)
(-0.02082777 0.009914431 -0.0681939)
(-0.02064652 0.01086147 -0.06810282)
(-0.020354 0.01182807 -0.06802952)
(0.01843266 0.01188603 -0.06857481)
(-0.02029922 0.01278392 -0.06787426)
(0.0183275 0.01279851 -0.06843745)
(0.01857524 0.01387692 -0.06811509)
(-0.01611252 0.0152935 -0.06839085)
(0.0181573 0.01523573 -0.06793451)
(-0.01614911 0.01715443 -0.06802264)
(0.01407772 0.01722284 -0.06845663)
(-0.01176911 0.01933204 -0.06832079)
(0.01387704 0.01932447 -0.06793787)
(-0.01156943 0.02143546 -0.06774069)
(-0.007387222 0.02143331 -0.06832866)
(0.005439409 0.02157183 -0.06846834)
(0.009332726 0.02131708 -0.06812655)
(-0.003104401 0.02364966 -0.06792198)
(0.001043483 0.02369257 -0.06796961)
(0.005319022 0.02356253 -0.06781346)
(-0.02906232 0.0002365231 -0.06586439)
(-0.02897288 0.001175291 -0.06589221)
(-0.02878514 0.002143473 -0.06594898)
(0.02710819 0.002212794 -0.06666159)
(0.02736273 0.003176254 -0.06651295)
(0.02726365 0.004126995 -0.06649951)
(0.02721952 0.005090948 -0.06645072)
(0.02718792 0.006056949 -0.0663826)
(0.0271521 0.007018217 -0.06630253)
(0.02710962 0.007974876 -0.06621166)
(0.027047 0.008928021 -0.06611535)
(0.02693995 0.009871621 -0.06602443)
(-0.02497638 0.01091397 -0.06663747)
(0.0267324 0.01082066 -0.0659591)
(-0.02523631 0.01187179 -0.06636892)
(-0.02499002 0.01283172 -0.066282)
(-0.02480463 0.01386098 -0.06614391)
(-0.02450846 0.01529683 -0.06593773)
(0.02273791 0.01534948 -0.06656324)
(0.02260497 0.01717 -0.06615301)
(-0.02059108 0.01933197 -0.06621519)
(0.0184219 0.02148048 -0.06619123)
(-0.01602747 0.0236666 -0.06607089)
(0.01395668 0.02368712 -0.06653576)
(-0.01178664 0.02585914 -0.06614111)
(0.009627756 0.02583085 -0.06650479)
(-0.00747716 0.02792438 -0.06592864)
(-0.003086314 0.02787169 -0.06630453)
(0.0009971291 0.0279221 -0.06634894)
(0.005242322 0.02803065 -0.06609991)
(0.03241669 0.000241508 -0.06428797)
(0.03232965 0.001198481 -0.06431968)
(0.03174543 0.00220878 -0.06457713)
(0.03162721 0.003159579 -0.06459305)
(0.0316003 0.004123011 -0.06455189)
(0.03156933 0.005089874 -0.06449801)
(0.03153481 0.006054836 -0.06443154)
(0.03149366 0.007015578 -0.06435424)
(0.03144614 0.007971936 -0.06426615)
(0.03138532 0.008922836 -0.06417098)
(0.03128208 0.009866315 -0.06408366)
(0.03110012 0.01082332 -0.06401792)
(-0.02956996 0.01191753 -0.06454835)
(-0.02939812 0.01285373 -0.06444443)
(-0.02925607 0.01388808 -0.06429386)
(-0.02898156 0.01524286 -0.06410775)
(0.02722662 0.01723932 -0.06437431)
(-0.02492578 0.01940849 -0.06469307)
(0.0266583 0.01932819 -0.06401627)
(-0.02466069 0.02154862 -0.06410797)
(0.02244525 0.02371928 -0.0641561)
(-0.0202934 0.02584837 -0.06404843)
(0.01840278 0.02587935 -0.06461224)
(-0.01634838 0.02799843 -0.06427281)
(-0.01170543 0.03027986 -0.06425466)
(0.009708721 0.03026177 -0.06459719)
(0.01377488 0.03005175 -0.06394836)
(-0.007398842 0.03220043 -0.06395827)
(-0.003132877 0.03237397 -0.06422118)
(0.001036425 0.03245133 -0.06425092)
(0.005193457 0.03229506 -0.06412736)
(0.03585298 0.0002422827 -0.06242883)
(0.03581088 0.001207544 -0.06244024)
(0.03578687 0.00217564 -0.06242768)
(0.03576684 0.003143649 -0.06239789)
(0.03574169 0.004108898 -0.06235622)
(0.0357039 0.005068458 -0.06230735)
(0.03569386 0.006033009 -0.0622266)
(0.03549157 0.007008291 -0.06224229)
(0.03538766 0.007958637 -0.0621876)
(0.03525052 0.008962437 -0.06213116)
(-0.03455184 0.009921155 -0.06238129)
(-0.03388713 0.01091292 -0.06257352)
(-0.0337043 0.01185792 -0.06249764)
(-0.03360109 0.01281641 -0.06236424)
(-0.03348747 0.01386255 -0.06220106)
(-0.03295903 0.01532097 -0.06214386)
(0.03147644 0.01720967 -0.06241418)
(-0.03021457 0.0194359 -0.06239163)
(-0.02899706 0.02157729 -0.06225749)
(0.02709686 0.02366751 -0.06235321)
(-0.02496384 0.02585649 -0.06237471)
(0.02262012 0.02807047 -0.06231277)
(-0.02025315 0.03019449 -0.06213018)
(0.01823479 0.0302286 -0.06274277)
(-0.01606904 0.03236101 -0.0622646)
(0.01400306 0.03239673 -0.0627474)
(-0.01172807 0.03440373 -0.06213711)
(-0.007552908 0.03458575 -0.06268643)
(0.009605172 0.03462836 -0.06237874)
(-0.003172922 0.03649909 -0.06196783)
(0.0009908992 0.03655303 -0.06201132)
(-0.03900466 0.0002443861 -0.06051789)
(-0.0389634 0.001209304 -0.06053151)
(-0.03894471 0.002176681 -0.06051647)
(-0.038924 0.003143944 -0.06048726)
(-0.03889459 0.004107399 -0.06044842)
(-0.03884507 0.005066843 -0.06040744)
(-0.03868904 0.006042242 -0.0604173)
(-0.03817644 0.007031629 -0.06062909)
(-0.03808226 0.007981056 -0.06057053)
(-0.03797233 0.008941336 -0.0605049)
(-0.0379239 0.009907153 -0.06038404)
(-0.03769373 0.01087685 -0.06036348)
(-0.0375435 0.0118169 -0.06028101)
(0.03686836 0.01288985 -0.06048412)
(0.03655101 0.01390945 -0.06044933)
(0.03583416 0.01531262 -0.06053082)
(0.03541844 0.0172337 -0.06025908)
(-0.03375613 0.01938836 -0.06055776)
(-0.0330836 0.02150852 -0.0602107)
(0.03129809 0.02375255 -0.06032299)
(-0.02936463 0.02585055 -0.06043109)
(0.02718573 0.02802391 -0.06048362)
(-0.02487759 0.03030282 -0.06037738)
(0.02244338 0.03238996 -0.06024526)
(0.01836864 0.03460538 -0.06039522)
(-0.01180816 0.0367582 -0.06076454)
(0.01395563 0.03670376 -0.06033595)
(-0.00745975 0.0387385 -0.06021434)
(-0.003203767 0.03901718 -0.06041442)
(0.001056017 0.03884291 -0.06060399)
(0.005258682 0.03888562 -0.06035383)
(-0.04206915 0.0002421746 -0.05842263)
(-0.04204003 0.0012058 -0.05843019)
(-0.04202125 0.002169122 -0.05841587)
(-0.04199889 0.003125924 -0.05838861)
(-0.04197439 0.004098164 -0.05834596)
(-0.04183823 0.005060465 -0.0583696)
(-0.04172978 0.006072718 -0.0583527)
(0.04117055 0.007042009 -0.05864392)
(0.04107334 0.007984651 -0.05859113)
(0.04098868 0.008939255 -0.05851247)
(0.04081085 0.009907449 -0.05848025)
(0.04030054 0.01089149 -0.05865183)
(0.04019673 0.01184693 -0.05853672)
(0.03991436 0.01283578 -0.05852323)
(0.03973983 0.01387421 -0.05840549)
(-0.03898789 0.01538293 -0.05854017)
(-0.03810408 0.01725362 -0.05859203)
(-0.03746715 0.019377 -0.05834039)
(0.03591307 0.02153145 -0.05855985)
(-0.0344841 0.02378434 -0.05855403)
(-0.03319727 0.02590499 -0.05838993)
(0.03129536 0.02809925 -0.0584263)
(-0.02910863 0.0302746 -0.05846969)
(0.02685961 0.03243734 -0.05838446)
(-0.02450822 0.03449023 -0.05824226)
(-0.02051615 0.0367771 -0.05838688)
(-0.01616441 0.03887851 -0.05839224)
(-0.0116447 0.04084489 -0.05812294)
(-0.007529206 0.04123323 -0.05852937)
(0.005483827 0.04110917 -0.05884515)
(0.009525051 0.04103599 -0.05837572)
(-0.04477201 0.0002410652 -0.0563821)
(-0.04476283 0.001204271 -0.05637621)
(-0.04474721 0.002166344 -0.05635985)
(-0.04471417 0.003122535 -0.05634113)
(-0.0446344 0.00409227 -0.05634163)
(0.04374548 0.004156812 -0.05703366)
(-0.04464409 0.005052794 -0.05625661)
(0.0437104 0.005064868 -0.05698661)
(-0.04458553 0.006041214 -0.05620664)
(0.04367015 0.006030152 -0.05692294)
(0.04383868 0.007019583 -0.05667539)
(0.04377451 0.007973154 -0.0565987)
(0.04368161 0.008932105 -0.05652749)
(0.04359086 0.00988015 -0.05643982)
(0.04346596 0.01087145 -0.05635546)
(-0.04287784 0.01186021 -0.05660829)
(-0.04235153 0.01285168 -0.05678154)
(-0.04217524 0.01388411 -0.0566691)
(-0.04194823 0.01532675 -0.05646578)
(0.04096689 0.01724984 -0.05663549)
(0.04008284 0.01934219 -0.05658397)
(-0.03885499 0.02160627 -0.05662957)
(-0.03773071 0.02375485 -0.05652185)
(0.03598449 0.02591612 -0.05671037)
(-0.03446851 0.02812674 -0.05660589)
(-0.03308199 0.03018796 -0.05636278)
(0.03096672 0.03234978 -0.056365)
(0.0280217 0.03460183 -0.0565763)
(-0.02492635 0.03685394 -0.05659516)
(0.0223909 0.03884068 -0.05632404)
(-0.01614221 0.04107309 -0.05688063)
(0.01819425 0.04097272 -0.05632588)
(-0.01184232 0.04316419 -0.05638057)
(0.009657555 0.04341665 -0.05660779)
(-0.04689962 0.0002421293 -0.05462533)
(-0.0468925 0.001206304 -0.05461785)
(-0.04687601 0.002172289 -0.05460214)
(-0.04685031 0.003138976 -0.0545772)
(-0.04681759 0.004103311 -0.05454129)
(-0.04677648 0.005064962 -0.05449573)
(-0.04672489 0.006022674 -0.0544425)
(-0.04666714 0.006970576 -0.05437894)
(-0.04658004 0.007919261 -0.05432356)
(0.04583068 0.007996637 -0.05494948)
(0.04600539 0.008950492 -0.05465282)
(0.04590598 0.009898538 -0.05457213)
(0.04579301 0.01084627 -0.05448689)
(0.04565389 0.01179078 -0.05440698)
(-0.04482535 0.01280524 -0.05486781)
(0.04559922 0.01279749 -0.05422671)
(-0.04489448 0.01386566 -0.05454921)
(-0.04460111 0.01527613 -0.05441245)
(0.04367495 0.01716869 -0.05459654)
(-0.04241248 0.01942726 -0.05483357)
(-0.04183812 0.02153211 -0.05448588)
(0.04028682 0.023724 -0.05474324)
(-0.03890895 0.02597692 -0.05472419)
(-0.03768549 0.02808071 -0.05453349)
(0.03585346 0.03018396 -0.05464489)
(-0.0337751 0.03239875 -0.0547012)
(0.03156984 0.03456826 -0.05469016)
(-0.02910339 0.03680028 -0.05460228)
(0.02662615 0.03885964 -0.05443649)
(0.02266251 0.04110835 -0.05458055)
(0.01830492 0.04326045 -0.05455189)
(-0.01177146 0.04544152 -0.05458161)
(0.01382955 0.04520442 -0.05429166)
(-0.04873583 0.0002382827 -0.05299682)
(0.04947999 0.0002330639 -0.05229998)
(-0.04876465 0.00119883 -0.05295611)
(0.04947585 0.0012133 -0.05229047)
(-0.04894354 0.002184263 -0.05275615)
(-0.0489015 0.003143407 -0.05274677)
(-0.04885609 0.004110678 -0.05272246)
(-0.0488126 0.005075747 -0.05267867)
(-0.04876182 0.006036766 -0.05262432)
(-0.04870215 0.006993116 -0.05256114)
(-0.04863087 0.007941668 -0.05249233)
(-0.04852159 0.008879383 -0.05244287)
(0.04797342 0.009930047 -0.05275881)
(0.04786791 0.01087043 -0.05266841)
(0.04774925 0.01181581 -0.05257252)
(0.0476311 0.01275656 -0.05245969)
(-0.04678094 0.0139021 -0.05293448)
(0.04751972 0.01384898 -0.05228346)
(-0.04679338 0.01522662 -0.05255394)
(0.04594815 0.0172011 -0.05269068)
(-0.04498868 0.01934866 -0.05277311)
(0.04389802 0.02154404 -0.05283964)
(-0.04290549 0.02375324 -0.05271051)
(-0.04184287 0.02586781 -0.05256268)
(0.04018538 0.02804344 -0.05273929)
(-0.03873269 0.03024369 -0.05261664)
(0.03669522 0.03244797 -0.05276411)
(-0.03461823 0.03463091 -0.0527798)
(0.03236043 0.0367821 -0.05275673)
(-0.02957166 0.03895901 -0.05282284)
(0.02686385 0.04109817 -0.05264902)
(0.02273861 0.04337384 -0.05276513)
(0.01836147 0.04548728 -0.05269005)
(-0.01175188 0.04765299 -0.05266709)
(0.0138488 0.04736386 -0.05241365)
(0.05138062 0.0002350341 -0.05043366)
(0.05140112 0.001175782 -0.05039832)
(0.05130876 0.002179458 -0.05046048)
(-0.05085988 0.003170601 -0.05085988)
(-0.05082587 0.004115488 -0.05082587)
(-0.05078227 0.005078905 -0.05078227)
(-0.05072956 0.006041394 -0.05072956)
(-0.05066799 0.00699897 -0.05066799)
(-0.05059771 0.007951143 -0.05059771)
(-0.0505195 0.008890315 -0.0505195)
(-0.05042695 0.009888401 -0.05042695)
(0.0498471 0.01089654 -0.05079397)
(0.04973319 0.01182846 -0.05069691)
(0.04961773 0.01276963 -0.05058158)
(0.04947338 0.01386224 -0.05043516)
(-0.04877018 0.01528295 -0.05070765)
(-0.04848591 0.01714818 -0.05038148)
(0.04774318 0.01723263 -0.05106117)
(0.04759477 0.01930413 -0.05045116)
(-0.04663475 0.02148297 -0.05046707)
(-0.04485083 0.02368517 -0.05109813)
(0.04563611 0.02360047 -0.05043409)
(0.04386486 0.02587159 -0.05088951)
(-0.04241272 0.02810187 -0.05093502)
(0.04103554 0.03031766 -0.05079679)
(0.03962961 0.03239505 -0.05062534)
(-0.03770476 0.03455712 -0.05066533)
(0.03554945 0.03674654 -0.05068258)
(-0.03322589 0.0388845 -0.05066303)
(-0.03019597 0.04115313 -0.05077327)
(0.02694278 0.04333398 -0.05078265)
(0.02275875 0.04558087 -0.05086166)
(0.01835325 0.04764233 -0.05075278)
(-0.01183316 0.04976831 -0.05064967)
(0.009645599 0.05023018 -0.05066362)
(-0.05299682 0.0002382827 -0.04873583)
(-0.05295611 0.00119883 -0.04876465)
(-0.05275615 0.002184263 -0.04894354)
(-0.05274677 0.003143407 -0.0489015)
(-0.05272246 0.004110678 -0.04885609)
(-0.05267867 0.005075747 -0.0488126)
(-0.05262432 0.006036766 -0.04876182)
(-0.05256114 0.006993116 -0.04870215)
(-0.05249233 0.007941668 -0.04863087)
(-0.05244287 0.008879383 -0.04852159)
(0.05202564 0.009938543 -0.04876853)
(0.05173585 0.01088572 -0.04887108)
(0.05164342 0.01182395 -0.04875068)
(0.05152835 0.01276634 -0.04863461)
(0.05137478 0.01385556 -0.04849891)
(-0.05070765 0.01528295 -0.04877018)
(-0.05038148 0.01714818 -0.04848591)
(0.04951156 0.0193211 -0.04856491)
(-0.04858625 0.02149382 -0.04858625)
(0.04759652 0.02364919 -0.04856455)
(-0.04658325 0.02575192 -0.04847753)
(0.04582918 0.02584552 -0.04914582)
(-0.04486839 0.02799613 -0.04884986)
(0.04354535 0.03020738 -0.04872783)
(-0.0419168 0.03241079 -0.04873747)
(0.0400005 0.03461163 -0.04883489)
(-0.03790348 0.03682014 -0.04889204)
(0.03571311 0.03897782 -0.04886782)
(-0.03334229 0.04111489 -0.04879023)
(0.03085848 0.04317299 -0.04864478)
(0.02698852 0.04549235 -0.04883268)
(0.02273287 0.04771357 -0.04887866)
(0.01830138 0.04971105 -0.04874778)
(-0.01176954 0.05176331 -0.04862335)
(-0.007587743 0.05241787 -0.0487608)
(0.009576588 0.05200931 -0.04884627)
(-0.05462533 0.0002421293 -0.04689962)
(-0.05461785 0.001206304 -0.0468925)
(-0.05460214 0.002172289 -0.04687601)
(-0.0545772 0.003138976 -0.04685031)
(-0.05454129 0.004103311 -0.04681759)
(-0.05449573 0.005064962 -0.04677648)
(-0.0544425 0.006022674 -0.04672489)
(-0.05437894 0.006970576 -0.04666714)
(-0.05432356 0.007919261 -0.04658004)
(0.05394919 0.008969619 -0.04682785)
(0.05366709 0.009915611 -0.04695728)
(0.05358758 0.01085991 -0.04683912)
(0.0534848 0.01180354 -0.0467282)
(0.05339121 0.01274524 -0.04658736)
(-0.05293448 0.0139021 -0.04678094)
(-0.05255394 0.01522662 -0.04679338)
(0.05178706 0.01723225 -0.04695244)
(0.05137985 0.01928288 -0.04659898)
(-0.05046707 0.02148297 -0.04663475)
(0.04951063 0.02362898 -0.04662202)
(-0.04847753 0.02575192 -0.04658325)
(-0.0469053 0.02798553 -0.0469053)
(0.0457384 0.03015547 -0.04671149)
(0.04379947 0.03249625 -0.04699843)
(-0.04217383 0.03464575 -0.04694658)
(0.04025981 0.03677183 -0.04700713)
(-0.03816014 0.03894002 -0.04701283)
(0.03585433 0.04117296 -0.04692653)
(-0.03345797 0.04324387 -0.04683185)
(-0.03018965 0.04555833 -0.04686578)
(0.02686617 0.04761309 -0.04683848)
(0.02265002 0.04975854 -0.04683576)
(-0.01617285 0.05212836 -0.04694408)
(0.0181767 0.05171107 -0.04666724)
(-0.007439273 0.05416036 -0.04683798)
(-0.003346355 0.05459388 -0.0468106)
(0.005311128 0.05446037 -0.04678308)
(0.009621402 0.05395955 -0.04666859)
(-0.0563821 0.0002410652 -0.04477201)
(-0.05637621 0.001204271 -0.04476283)
(-0.05635985 0.002166344 -0.04474721)
(-0.05634113 0.003122535 -0.04471417)
(-0.05634163 0.00409227 -0.0446344)
(-0.05625661 0.005052794 -0.04464409)
(-0.05620664 0.006041214 -0.04458553)
(0.05590383 0.007000421 -0.04482802)
(0.05563387 0.007981691 -0.04499635)
(0.05554694 0.008932332 -0.04492386)
(0.05547187 0.009883888 -0.04481749)
(0.05541901 0.01083371 -0.04466227)
(0.05527133 0.01183334 -0.0445937)
(-0.05486781 0.01280524 -0.04482535)
(-0.05454921 0.01386566 -0.04489448)
(-0.05441245 0.01527613 -0.04460111)
(0.05361411 0.01715334 -0.04488452)
(-0.05277311 0.01934866 -0.04498868)
(0.05206537 0.0215003 -0.04483895)
(-0.05109813 0.02368517 -0.04485083)
(0.04988443 0.02586456 -0.04501022)
(-0.04884986 0.02799613 -0.04486839)
(0.04767453 0.03016845 -0.04472471)
(0.04600586 0.0323829 -0.04492297)
(-0.04467627 0.03451529 -0.04467627)
(-0.04242218 0.03680637 -0.04503892)
(0.04087172 0.03888866 -0.04472715)
(-0.03869284 0.04104451 -0.04473844)
(0.0358871 0.04337383 -0.04487195)
(-0.03336611 0.04544663 -0.04476405)
(-0.02966473 0.04785412 -0.0448601)
(0.0266807 0.04966169 -0.04476722)
(-0.02047687 0.05248363 -0.0448228)
(0.02237729 0.05176053 -0.04474641)
(-0.01606344 0.0540531 -0.0447492)
(0.01398985 0.05461293 -0.04477207)
(-0.007484794 0.05597481 -0.04464245)
(-0.003142878 0.05626105 -0.04480007)
(0.001039821 0.05626801 -0.04489046)
(0.005208803 0.05618258 -0.0447062)
(-0.05842263 0.0002421746 -0.04206915)
(-0.05843019 0.0012058 -0.04204003)
(-0.05841587 0.002169122 -0.04202125)
(-0.05838861 0.003125924 -0.04199889)
(-0.05834596 0.004098164 -0.04197439)
(0.05754393 0.004160345 -0.04307185)
(-0.0583696 0.005060465 -0.04183823)
(0.05754503 0.005067452 -0.04297237)
(-0.0583527 0.006072718 -0.04172978)
(0.05755332 0.006040621 -0.0428344)
(0.05777482 0.007035406 -0.04237378)
(0.05771647 0.007984238 -0.04228489)
(0.05763523 0.008941131 -0.04220404)
(0.05755936 0.009897439 -0.04209344)
(0.05743059 0.01085114 -0.04203356)
(-0.05660829 0.01186021 -0.04287784)
(0.05741204 0.01188295 -0.04178425)
(-0.05678154 0.01285168 -0.04235153)
(-0.0566691 0.01388411 -0.04217524)
(-0.05646578 0.01532675 -0.04194823)
(0.05571932 0.01722275 -0.04220788)
(-0.05483357 0.01942726 -0.04241248)
(-0.05448588 0.02153211 -0.04183812)
(0.05365073 0.02158271 -0.04288693)
(-0.05271051 0.02375324 -0.04290549)
(0.05354713 0.02372107 -0.04186647)
(-0.05256268 0.02586781 -0.04184287)
(0.05172505 0.02588668 -0.04287089)
(-0.05093502 0.02810187 -0.04241272)
(0.04983762 0.0303086 -0.04219662)
(-0.04873747 0.03241079 -0.0419168)
(0.04784842 0.03244853 -0.04290803)
(-0.04694658 0.03464575 -0.04217383)
(-0.04503892 0.03680637 -0.04242218)
(0.0435576 0.03892253 -0.04207749)
(0.04120818 0.0412198 -0.04226084)
(-0.03853786 0.0434823 -0.04250021)
(0.03611682 0.04571442 -0.04228614)
(-0.03363754 0.04778378 -0.04203745)
(-0.02967513 0.04997223 -0.04247241)
(-0.02502496 0.05208215 -0.04294123)
(0.02698555 0.05200428 -0.04182395)
(-0.02073102 0.05441261 -0.04232592)
(-0.01618971 0.05629096 -0.0418438)
(0.01404003 0.05649278 -0.04235145)
(-0.007573432 0.05804895 -0.04189359)
(-0.003256544 0.0581468 -0.04231593)
(0.001057367 0.05799053 -0.04264669)
(0.005317965 0.05810163 -0.04216712)
(-0.06051789 0.0002443861 -0.03900466)
(0.06133343 0.0002414627 -0.03769903)
(-0.06053151 0.001209304 -0.0389634)
(0.06134495 0.001207114 -0.03765958)
(-0.06051647 0.002176681 -0.03894471)
(0.06132986 0.002175037 -0.03764072)
(-0.06048726 0.003143944 -0.038924)
(0.06130024 0.003142002 -0.0376207)
(-0.06044842 0.004107399 -0.03889459)
(0.0612603 0.004105229 -0.03759303)
(-0.06040744 0.005066843 -0.03884507)
(0.06121685 0.005060797 -0.03754748)
(-0.0604173 0.006042242 -0.03868904)
(0.06119293 0.006069066 -0.03744063)
(-0.06062909 0.007031629 -0.03817644)
(-0.06057053 0.007981056 -0.03808226)
(-0.0605049 0.008941336 -0.03797233)
(-0.06038404 0.009907153 -0.0379239)
(-0.06036348 0.01087685 -0.03769373)
(0.05953852 0.01090149 -0.03898738)
(-0.06028101 0.0118169 -0.0375435)
(0.05946556 0.01183704 -0.03882524)
(0.05964699 0.01285654 -0.03820889)
(0.05955615 0.01389807 -0.0379814)
(-0.05854017 0.01538293 -0.03898789)
(0.05936194 0.01527473 -0.03775483)
(-0.05859203 0.01725362 -0.03810408)
(-0.05834039 0.019377 -0.03746715)
(0.05753661 0.01935545 -0.03870798)
(-0.05662957 0.02160627 -0.03885499)
(0.05743591 0.0215552 -0.03767137)
(-0.05652185 0.02375485 -0.03773071)
(0.05570086 0.02380324 -0.03891354)
(-0.05472419 0.02597692 -0.03890895)
(0.0555548 0.02593241 -0.03773315)
(-0.05453349 0.02808071 -0.03768549)
(0.05369894 0.02812101 -0.0388469)
(-0.05261664 0.03024369 -0.03873269)
(0.05347914 0.03018909 -0.03756663)
(0.05180894 0.0323842 -0.03807564)
(-0.05066533 0.03455712 -0.03770476)
(0.04978526 0.03462037 -0.03881057)
(-0.04889204 0.03682014 -0.03790348)
(0.04803087 0.03686282 -0.03895679)
(-0.04701283 0.03894002 -0.03816014)
(-0.04473844 0.04104451 -0.03869284)
(0.04574193 0.041 -0.03754172)
(-0.04250021 0.0434823 -0.03853786)
(0.04045704 0.04561613 -0.03826336)
(-0.03800752 0.0478834 -0.03800752)
(0.03557858 0.04992925 -0.03771924)
(0.03154563 0.05222921 -0.03819551)
(-0.02897516 0.05416026 -0.03752814)
(0.02701559 0.05423694 -0.03887428)
(-0.02478706 0.05620912 -0.0375193)
(0.02277541 0.05655279 -0.03827653)
(-0.01630739 0.05817749 -0.03914556)
(0.01854273 0.05810934 -0.03822259)
(-0.01608893 0.05924056 -0.03760404)
(-0.01199356 0.05930151 -0.03901823)
(0.01385762 0.05920577 -0.03854062)
(-0.01181555 0.06022503 -0.03762526)
(-0.007459767 0.0601996 -0.03877097)
(0.00548484 0.0602644 -0.03900041)
(0.009477638 0.06014283 -0.03841494)
(-0.007447499 0.06108974 -0.03734791)
(-0.003260785 0.06120144 -0.03776614)
(0.001082881 0.061055 -0.03812997)
(0.005287454 0.06115953 -0.03760357)
(0.06352236 0.000243808 -0.03387769)
(0.06354426 0.001209179 -0.03381246)
(0.06354759 0.002180741 -0.03375638)
(0.06351668 0.003149295 -0.03373813)
(0.06347536 0.0041159 -0.03371176)
(0.06342149 0.005081677 -0.03368144)
(0.06335857 0.006044434 -0.03364101)
(0.06329387 0.007004935 -0.03357722)
(0.06321873 0.00796038 -0.03350646)
(0.06310935 0.008916202 -0.03347111)
(-0.06238129 0.009921155 -0.03455184)
(0.06310551 0.009875169 -0.03321272)
(-0.06257352 0.01091292 -0.03388713)
(-0.06249764 0.01185792 -0.0337043)
(-0.06236424 0.01281641 -0.03360109)
(-0.06220106 0.01386255 -0.03348747)
(-0.06214386 0.01532097 -0.03295903)
(0.06138984 0.01532671 -0.03434895)
(0.06133618 0.01718235 -0.03354136)
(-0.06055776 0.01938836 -0.03375613)
(-0.0602107 0.02150852 -0.0330836)
(0.05943712 0.02158191 -0.03442198)
(-0.05855403 0.02378434 -0.0344841)
(0.05932452 0.02371638 -0.03317597)
(-0.05838993 0.02590499 -0.03319727)
(0.05760938 0.02597004 -0.03449837)
(-0.05660589 0.02812674 -0.03446851)
(0.05739852 0.02806763 -0.03316806)
(-0.05636278 0.03018796 -0.03308199)
(0.05556132 0.03022798 -0.03438966)
(-0.0547012 0.03239875 -0.0337751)
(-0.0527798 0.03463091 -0.03461823)
(0.05358315 0.03456582 -0.03341857)
(0.0518471 0.03676358 -0.03380806)
(-0.05066303 0.0388845 -0.03322589)
(0.04979614 0.03897505 -0.03441879)
(-0.04879023 0.04111489 -0.03334229)
(0.04788245 0.0411634 -0.03458579)
(-0.04683185 0.04324387 -0.03345797)
(0.04591441 0.04333819 -0.03459739)
(-0.04476405 0.04544663 -0.03336611)
(0.04364638 0.04557577 -0.0346552)
(-0.04203745 0.04778378 -0.03363754)
(0.03973273 0.04989101 -0.03337175)
(0.03622014 0.0521463 -0.03391641)
(-0.03347464 0.05422929 -0.03347464)
(-0.02934523 0.05643624 -0.03369836)
(-0.0252926 0.05814825 -0.03407046)
(0.0229296 0.0592525 -0.0338378)
(-0.02064585 0.06015955 -0.0337076)
(-0.01619742 0.06114758 -0.03437365)
(0.01822691 0.06113212 -0.03335942)
(-0.01182434 0.0620968 -0.03445489)
(0.01410393 0.06206608 -0.03362354)
(-0.007320639 0.06301086 -0.03403973)
(-0.003148532 0.06313961 -0.0344422)
(0.001055931 0.06316885 -0.03451595)
(0.005247317 0.06306532 -0.03432177)
(0.009691194 0.06308674 -0.03329286)
(-0.003212226 0.06392684 -0.03294363)
(0.001006926 0.06394837 -0.03304669)
(-0.06586439 0.0002365231 -0.02906232)
(-0.06589221 0.001175291 -0.02897288)
(-0.06594898 0.002143473 -0.02878514)
(0.06529801 0.002227816 -0.03024804)
(0.06556675 0.003186656 -0.02955813)
(0.0655595 0.004130061 -0.02945222)
(0.06550974 0.005093125 -0.02941176)
(0.06544208 0.006059235 -0.02937923)
(0.06536227 0.007020723 -0.02934293)
(0.06527148 0.007977305 -0.0293006)
(0.06517205 0.008929122 -0.02924729)
(0.06507298 0.009875813 -0.02916323)
(0.06499733 0.01080454 -0.02900304)
(-0.06454835 0.01191753 -0.02956996)
(-0.06444443 0.01285373 -0.02939812)
(-0.06429386 0.01388808 -0.02925607)
(-0.06410775 0.01524286 -0.02898156)
(0.0633958 0.01724589 -0.02943019)
(-0.06239163 0.0194359 -0.03021457)
(0.06309177 0.01933635 -0.02877371)
(-0.06225749 0.02157729 -0.02899706)
(0.06134471 0.02367374 -0.02930223)
(-0.06043109 0.02585055 -0.02936463)
(0.05946845 0.02801051 -0.02934914)
(-0.05846969 0.0302746 -0.02910863)
(0.0573881 0.03240236 -0.0289676)
(0.05578044 0.03460052 -0.02956338)
(-0.05460228 0.03680028 -0.02910339)
(-0.05282284 0.03895901 -0.02957166)
(-0.05077327 0.04115313 -0.03019597)
(0.05161603 0.04104161 -0.02887745)
(0.04973162 0.04323676 -0.02898151)
(-0.04686578 0.04555833 -0.03018965)
(0.04776746 0.04540631 -0.02896756)
(-0.0448601 0.04785412 -0.02966473)
(0.04579493 0.04749001 -0.02880672)
(-0.04247241 0.04997223 -0.02967513)
(0.04005331 0.05214334 -0.02930368)
(-0.03752814 0.05416026 -0.02897516)
(-0.03369836 0.05643624 -0.02934523)
(0.03113046 0.05805726 -0.02901469)
(-0.02894285 0.05921662 -0.02894285)
(0.02682662 0.06021283 -0.02892549)
(-0.02462127 0.06115763 -0.0289035)
(-0.02061863 0.0620925 -0.03004262)
(0.02239152 0.06208112 -0.02874706)
(0.01855847 0.06302597 -0.02941214)
(-0.01599224 0.06394915 -0.02892994)
(0.01398308 0.06395244 -0.02995791)
(-0.01171202 0.06487417 -0.02891846)
(-0.007562692 0.06494666 -0.03012747)
(0.009505813 0.06485135 -0.02977802)
(-0.003108324 0.06588558 -0.02883981)
(0.001042487 0.06591993 -0.02890923)
(0.005325675 0.0658195 -0.02866264)
(0.06753027 0.0002414473 -0.02496541)
(0.06753649 0.001190316 -0.02491489)
(0.06737982 0.002190844 -0.02525362)
(0.06738209 0.003147936 -0.02514176)
(0.06737058 0.004116295 -0.02503496)
(0.06731938 0.005084311 -0.02499525)
(0.06725257 0.006049409 -0.02495997)
(0.06717784 0.007010669 -0.02490896)
(0.06708865 0.007966401 -0.02486176)
(0.06699819 0.008914272 -0.02478325)
(0.06693832 0.009866276 -0.02458043)
(-0.06663747 0.01091397 -0.02497638)
(-0.06636892 0.01187179 -0.02523631)
(-0.066282 0.01283172 -0.02499002)
(-0.06614391 0.01386098 -0.02480463)
(-0.06593773 0.01529683 -0.02450846)
(0.06527467 0.01720454 -0.02500943)
(-0.06469307 0.01940849 -0.02492578)
(-0.06410797 0.02154862 -0.02466069)
(0.06330617 0.02366008 -0.02479071)
(-0.06237471 0.02585649 -0.02496384)
(0.06142227 0.02803047 -0.02497927)
(-0.06037738 0.03030282 -0.02487759)
(0.05934238 0.03243521 -0.02467314)
(-0.05824226 0.03449023 -0.02450822)
(-0.05659516 0.03685394 -0.02492635)
(0.05540134 0.0388611 -0.02455396)
(0.05363247 0.04112044 -0.02480378)
(0.05179219 0.04337035 -0.02488197)
(0.04986676 0.04555678 -0.02490765)
(0.04787354 0.04767598 -0.02485281)
(0.04582696 0.04972395 -0.02469887)
(-0.04294123 0.05208215 -0.02502496)
(0.04016413 0.05429541 -0.02491374)
(-0.0375193 0.05620912 -0.02478706)
(-0.03407046 0.05814825 -0.0252926)
(0.03231151 0.05926327 -0.02503927)
(0.03090368 0.06017923 -0.02460102)
(-0.0289035 0.06115763 -0.02462127)
(0.02677122 0.06212189 -0.02461696)
(-0.02455931 0.06305161 -0.02455931)
(-0.02058275 0.06400105 -0.02575495)
(0.02230413 0.06395859 -0.02436426)
(0.01835084 0.06500957 -0.02488501)
(-0.01585878 0.06585992 -0.02434428)
(0.01389147 0.06585047 -0.02556676)
(-0.01163686 0.066746 -0.02431939)
(-0.007566818 0.06684598 -0.02563524)
(0.009561587 0.06687076 -0.02488199)
(-0.003180441 0.0677056 -0.02424729)
(0.000994379 0.06773236 -0.02436445)
(0.06898638 0.0002385622 -0.02057782)
(0.0690251 0.00120102 -0.0204025)
(0.06899629 0.002176485 -0.0204227)
(0.06896782 0.003140384 -0.02039357)
(0.06892377 0.004107483 -0.02037082)
(0.06886557 0.005070546 -0.02035085)
(0.06880011 0.006024021 -0.0203127)
(0.06874441 0.00701906 -0.02019222)
(-0.0685232 0.007985816 -0.02059481)
(-0.06843616 0.00891968 -0.0204997)
(-0.0681939 0.009914431 -0.02082777)
(-0.06810282 0.01086147 -0.02064652)
(-0.06802952 0.01182807 -0.020354)
(-0.06787426 0.01278392 -0.02029922)
(0.06757495 0.01392576 -0.02057043)
(0.06720946 0.01529835 -0.02076584)
(0.06693073 0.01719732 -0.02016854)
(-0.06621519 0.01933197 -0.02059108)
(0.06555571 0.02155268 -0.02052018)
(0.06493818 0.02364566 -0.02015104)
(-0.06404843 0.02584837 -0.0202934)
(0.06311958 0.02802832 -0.02030913)
(-0.06213018 0.03019449 -0.02025315)
(0.0610884 0.03231597 -0.02015171)
(0.05978519 0.03454631 -0.02037776)
(-0.05838688 0.0367771 -0.02051615)
(0.0571996 0.03878876 -0.02014603)
(0.0554748 0.04106106 -0.02047038)
(0.05368672 0.04333683 -0.02054588)
(0.05180465 0.04555734 -0.02057395)
(0.04984031 0.0477059 -0.02055642)
(0.04780986 0.04976329 -0.02050179)
(-0.0448228 0.05248363 -0.02047687)
(0.04572949 0.05175641 -0.02030939)
(-0.04232592 0.05441261 -0.02073102)
(0.03984888 0.05631138 -0.02055732)
(0.03689296 0.05819254 -0.02086966)
(0.03547367 0.05925823 -0.02029465)
(-0.0337076 0.06015955 -0.02064585)
(0.03213696 0.06110872 -0.02039407)
(-0.03004262 0.0620925 -0.02061863)
(0.02796978 0.06305672 -0.02060738)
(-0.02575495 0.06400105 -0.02058275)
(0.0230019 0.06498341 -0.02073128)
(-0.02040553 0.06594996 -0.02040553)
(-0.01605362 0.06684053 -0.02138919)
(0.01789877 0.06679096 -0.02000636)
(-0.01179304 0.06776541 -0.02124214)
(0.01381931 0.06773123 -0.02008169)
(-0.007064802 0.06857227 -0.02073739)