
21909
(
(-0.009064136 0 -0.07143301)
(-0.008998931 0.0004811288 -0.0714338)
(-0.005940038 0.0004785172 -0.07175296)
(-0.005925065 0 -0.07176205)
(-0.00898044 0.0009578404 -0.07143137)
(-0.0089695 0.001436373 -0.07142495)
(-0.005934916 0.001436798 -0.07174095)
(-0.0059381 0.0009581339 -0.07174838)
(0.006929683 0.003860204 -0.07154166)
(0.003943365 0.003841591 -0.0717871)
(0.003836514 0.004330438 -0.07176866)
(0.006863935 0.004346919 -0.07153996)
(0.005204042 0.006025698 -0.07140087)
(0.003900136 0.006216758 -0.07146125)
(0.004797213 0.006371223 -0.07120976)
(0.006366027 0.006234497 -0.07118766)
(-0.01690683 0 -0.0699918)
(-0.01690176 0.0004660097 -0.06998652)
(-0.01532724 0.0004735912 -0.07034807)
(-0.01538505 0 -0.07034159)
(0.01690683 0 -0.0699918)
(0.01690176 0.0004660097 -0.06998652)
(0.01935186 0.0004698033 -0.06934901)
(0.01940642 0 -0.06933856)
(-0.01688155 0.0009282242 -0.06998681)
(-0.01699243 0.001429515 -0.0699516)
(-0.01526929 0.001430949 -0.07034813)
(-0.01531078 0.0009501014 -0.07034691)
(0.01688155 0.0009282242 -0.06998681)
(0.01699243 0.001429515 -0.0699516)
(0.01777368 0.001616645 -0.06975301)
(0.01900527 0.001440703 -0.06943144)
(0.01927883 0.0009377069 -0.0693646)
(-0.01495876 0.00237964 -0.07014781)
(-0.01515212 0.001921017 -0.07035898)
(-0.01772864 0.001967271 -0.0697555)
(-0.017663 0.002428188 -0.06975769)
(-0.01488045 0.003376585 -0.07036063)
(-0.01463604 0.002872575 -0.07016436)
(-0.01761708 0.002903936 -0.06975113)
(-0.01759965 0.003386233 -0.06973374)
(0.01330103 0.003020615 -0.07030311)
(0.01332145 0.003373608 -0.07065588)
(0.01488045 0.003376585 -0.07036063)
(0.01463604 0.002872575 -0.07016436)
(-0.01487963 0.004354511 -0.07031111)
(-0.01489151 0.003871907 -0.07033717)
(-0.01759379 0.003870672 -0.06970996)
(-0.01758827 0.004353827 -0.06968283)
(0.01326909 0.003870223 -0.07066092)
(0.0132396 0.004354741 -0.07063839)
(0.01487963 0.004354511 -0.07031111)
(0.01489151 0.003871907 -0.07033717)
(-0.01485914 0.005314044 -0.07024932)
(-0.01486859 0.004834784 -0.07028195)
(-0.01758016 0.004835229 -0.06965313)
(-0.01756987 0.00531512 -0.06962075)
(0.01322372 0.004835659 -0.0706099)
(0.01321229 0.005315187 -0.07057752)
(0.01485914 0.005314044 -0.07024932)
(0.01486859 0.004834784 -0.07028195)
(-0.01483585 0.006269192 -0.07017554)
(-0.01484916 0.005792228 -0.07021362)
(-0.01755647 0.005793293 -0.06958597)
(-0.01753972 0.006270043 -0.06954886)
(0.01320084 0.005793692 -0.07054205)
(0.013187 0.006270977 -0.07050403)
(0.01483585 0.006269192 -0.07017554)
(0.01484916 0.005792228 -0.07021362)
(-0.01476727 0.007220409 -0.0700999)
(-0.01481274 0.006745134 -0.07013662)
(-0.01752485 0.006749225 -0.06950776)
(-0.01747511 0.007230127 -0.06947197)
(0.01316757 0.006748337 -0.07046415)
(0.01313449 0.007232288 -0.07041563)
(0.01476727 0.007220409 -0.0700999)
(0.01481274 0.006745134 -0.07013662)
(-0.01458479 0.008160763 -0.0699942)
(-0.01467715 0.007694786 -0.07006568)
(-0.01734643 0.007709493 -0.06945145)
(-0.0171799 0.00817979 -0.06940487)
(0.01303149 0.007658066 -0.07013424)
(0.0127134 0.008145667 -0.07011965)
(0.01458479 0.008160763 -0.0699942)
(0.01467715 0.007694786 -0.07006568)
(-0.01291895 0.008678307 -0.07018658)
(-0.01283342 0.009170064 -0.07024822)
(-0.01111907 0.009171049 -0.07053987)
(-0.01121779 0.008684553 -0.07055047)
(0.01291895 0.008678307 -0.07018658)
(0.01283342 0.009170064 -0.07024822)
(0.01550816 0.009214193 -0.06969212)
(0.01553238 0.008848374 -0.06962521)
(0.01470526 0.008669575 -0.06989775)
(-0.01270633 0.00965055 -0.07021243)
(-0.01259582 0.01012346 -0.0701653)
(-0.01091093 0.01007656 -0.07022245)
(-0.01103066 0.009649069 -0.07048143)
(0.01270633 0.00965055 -0.07021243)
(0.01259582 0.01012346 -0.0701653)
(0.0153898 0.01013964 -0.06960188)
(0.01544476 0.009672148 -0.06965516)
(-0.01250133 0.01059828 -0.07011242)
(-0.01246169 0.01107834 -0.07003495)
(-0.01077552 0.01109865 -0.07025409)
(-0.01057517 0.0105646 -0.07020885)
(0.009087432 0.01070472 -0.0702885)
(0.009024249 0.01111183 -0.07043726)
(0.01077552 0.01109865 -0.07025409)
(0.01057517 0.0105646 -0.07020885)
(0.01533963 0.01061037 -0.06954367)
(0.01250133 0.01059828 -0.07011242)
(0.01246169 0.01107834 -0.07003495)
(0.01528879 0.01108556 -0.06947225)
(-0.01241094 0.0115227 -0.06981593)
(-0.01249937 0.01201585 -0.06970258)
(-0.01058548 0.01202547 -0.06999299)
(-0.01070047 0.01154837 -0.07005002)
(0.00885105 0.0115031 -0.07010176)
(0.00847126 0.01198164 -0.07007286)
(0.01058548 0.01202547 -0.06999299)
(0.01070047 0.01154837 -0.07005002)
(0.01241094 0.0115227 -0.06981593)
(0.01249937 0.01201585 -0.06970258)
(0.01374167 0.01181967 -0.06956173)
(0.0138365 0.01150276 -0.06961011)
(-0.01035302 0.0130434 -0.07001895)
(-0.01047561 0.01253018 -0.07010236)
(-0.01330005 0.01257349 -0.06960283)
(-0.01318904 0.01306701 -0.06953862)
(-0.00867885 0.01253044 -0.07034307)
(-0.008573217 0.01305643 -0.07025113)
(-0.006706973 0.01296387 -0.0701714)
(-0.006876274 0.01253266 -0.07044643)
(0.00867885 0.01253044 -0.07034307)
(0.008573217 0.01305643 -0.07025113)
(0.01035302 0.0130434 -0.07001895)
(0.01047561 0.01253018 -0.07010236)
(-0.01168874 0.01345985 -0.0694898)
(-0.01158956 0.01380607 -0.06943759)
(-0.01030702 0.01405416 -0.06958246)
(-0.0102374 0.01348139 -0.06970763)
(-0.008413049 0.01350372 -0.0698825)
(-0.008308869 0.0140764 -0.06979287)
(-0.006369715 0.01413108 -0.07022739)
(-0.006263676 0.01347463 -0.07013973)
(0.004655064 0.01359979 -0.0702327)
(0.004217162 0.01411601 -0.07046486)
(0.006369715 0.01413108 -0.07022739)
(0.006263676 0.01347463 -0.07013973)
(0.008413049 0.01350372 -0.0698825)
(0.008308869 0.0140764 -0.06979287)
(0.01030702 0.01405416 -0.06958246)
(0.0102374 0.01348139 -0.06970763)
(-0.00816439 0.01474467 -0.06979182)
(-0.008123796 0.01553724 -0.06968349)
(-0.00615854 0.01557272 -0.06987687)
(-0.006269492 0.01478943 -0.06999122)
(-0.004252361 0.01484426 -0.07032473)
(-0.004167042 0.01564577 -0.07015701)
(-0.002086256 0.01566887 -0.07024371)
(-0.002035573 0.01478069 -0.07043805)
(-1.296331e-13 0.01488875 -0.07044412)
(-1.116933e-13 0.01568376 -0.07027116)
(0.002086256 0.01566887 -0.07024371)
(0.002035573 0.01478069 -0.07043805)
(0.004252361 0.01484426 -0.07032473)
(0.004167042 0.01564577 -0.07015701)
(0.00615854 0.01557272 -0.06987687)
(0.006269492 0.01478943 -0.06999122)
(0.00816439 0.01474467 -0.06979182)
(0.008123796 0.01553724 -0.06968349)
(0.009495395 0.0152311 -0.06956575)
(0.009713625 0.01474324 -0.06960958)
(-0.004278581 0.01791074 -0.06960536)
(-0.002682747 0.01797843 -0.06966763)
(-0.002024583 0.01749784 -0.06981212)
(-0.002064412 0.01655446 -0.07004072)
(-0.004069916 0.01648712 -0.06996928)
(-6.407711e-14 0.01657528 -0.07006614)
(-2.963522e-14 0.01741896 -0.06986116)
(0.002024583 0.01749784 -0.06981212)
(0.002064412 0.01655446 -0.07004072)
(0.004069916 0.01648712 -0.06996928)
(0.004278581 0.01791074 -0.06960536)
(0.006302719 0.01766608 -0.06951396)
(0.006851871 0.01688607 -0.06965202)
(0.006090001 0.01647622 -0.06982318)
(0.02178952 0 -0.06862723)
(0.02173994 0.0004839719 -0.06863775)
(0.02422283 0.0004851612 -0.06780132)
(0.02428084 0 -0.06778668)
(0.0241982 0.0009600264 -0.06780506)
(0.021702 0.0009649152 -0.06864468)
(0.02166891 0.001446078 -0.06864669)
(0.02418787 0.001441778 -0.06780021)
(0.02165121 0.001928296 -0.06864042)
(0.02163699 0.002412143 -0.0686296)
(0.02407253 0.002414488 -0.06781359)
(0.02415849 0.001927793 -0.06779861)
(0.02162145 0.002896886 -0.06861575)
(0.02160658 0.003381648 -0.06859825)
(0.02394414 0.00338507 -0.06781755)
(0.02398966 0.002901144 -0.06782389)
(0.02159432 0.003865922 -0.06857653)
(0.02158369 0.004349183 -0.06855092)
(0.02389619 0.004354808 -0.06777911)
(0.02391564 0.00386989 -0.06780167)
(0.02388119 0.004838789 -0.06775157)
(0.02157288 0.004831138 -0.06852205)
(0.02155964 0.005311526 -0.06849065)
(0.02386673 0.00532156 -0.06772046)
(0.02153985 0.005789604 -0.06845813)
(0.02150519 0.006263504 -0.0684273)
(0.02382303 0.006285112 -0.06765324)
(0.02384888 0.005803457 -0.06768715)
(0.02143428 0.006731551 -0.0684051)
(0.02115995 0.007233427 -0.06843927)
(0.02375307 0.007245286 -0.06758178)
(0.02378832 0.006766095 -0.06761905)
(-0.02133638 0.007737512 -0.06832928)
(-0.02132347 0.008207186 -0.06827849)
(-0.01981378 0.008224313 -0.06872967)
(-0.01989149 0.007767601 -0.06876037)
(0.02133638 0.007737512 -0.06832928)
(0.02132347 0.008207186 -0.06827849)
(0.02370689 0.008199301 -0.06748892)
(0.02373046 0.007723204 -0.06753679)
(-0.02128374 0.008674306 -0.06823312)
(-0.02125193 0.00913802 -0.0681825)
(-0.01972551 0.009172219 -0.06863506)
(-0.01975295 0.008694455 -0.06868931)
(0.02128374 0.008674306 -0.06823312)
(0.02125193 0.00913802 -0.0681825)
(0.02358604 0.009134214 -0.06741116)
(0.02366654 0.008670588 -0.06744417)
(-0.01957109 0.01013331 -0.06854405)
(-0.01968205 0.009653175 -0.06858156)
(-0.02135352 0.009641726 -0.06808131)
(-0.02211304 0.009832333 -0.06781103)
(-0.02206851 0.01017999 -0.06777423)
(-0.01931955 0.01107746 -0.06847043)
(-0.01944538 0.01060973 -0.06850791)
(-0.02197573 0.01064167 -0.06773343)
(-0.02183032 0.01111792 -0.06770394)
(-0.0216966 0.01159635 -0.06766667)
(-0.021616 0.0120715 -0.06760937)
(-0.01915357 0.01208056 -0.0683469)
(-0.01899685 0.01157877 -0.06847851)
(0.01772964 0.01176573 -0.06878346)
(0.01766225 0.01211263 -0.06874192)
(0.01915357 0.01208056 -0.0683469)
(0.01899685 0.01157877 -0.06847851)
(-0.01907643 0.01302093 -0.06819518)
(-0.01912379 0.01254796 -0.06827064)
(-0.02154544 0.01254656 -0.06754538)
(-0.02144405 0.01302379 -0.0674873)
(0.01758783 0.01256988 -0.06867883)
(0.01753462 0.01305457 -0.06860186)
(0.01907643 0.01302093 -0.06819518)
(0.01912379 0.01254796 -0.06827064)
(0.01744438 0.01357058 -0.06852157)
(0.01721143 0.01410256 -0.06832773)
(0.01982729 0.0142108 -0.06774167)
(0.01991026 0.01377028 -0.06780826)
(0.01914553 0.0135639 -0.06806996)
(-0.01676825 0.01479184 -0.06830143)
(-0.01683747 0.01566594 -0.06822715)
(-0.01530623 0.01569121 -0.06856287)
(-0.01541859 0.01499731 -0.0684942)
(0.01676825 0.01479184 -0.06830143)
(0.01683747 0.01566594 -0.06822715)
(0.01941938 0.01565476 -0.06754134)
(0.01966891 0.01486131 -0.06764822)
(-0.01479011 0.01764079 -0.06822145)
(-0.01483988 0.01662208 -0.06846675)
(-0.0168176 0.01660519 -0.06801176)
(-0.01763364 0.01693667 -0.06772139)
(-0.01742263 0.01769596 -0.06758189)
(0.01336176 0.01693337 -0.06867411)
(0.01315448 0.01767745 -0.06849943)
(0.01479011 0.01764079 -0.06822145)
(0.01483988 0.01662208 -0.06846675)
(-0.01260634 0.01866355 -0.0683602)
(-0.01264765 0.01979184 -0.06806084)
(-0.01054262 0.01979579 -0.06841624)
(-0.01107388 0.01897715 -0.068502)
(0.01264765 0.01979184 -0.06806084)
(0.01343149 0.02017857 -0.06779631)
(0.01494027 0.01984979 -0.06757788)
(0.01542645 0.01903166 -0.06770365)
(0.01464331 0.01863914 -0.06798681)
(0.01260634 0.01866355 -0.0683602)
(-0.0102663 0.02178463 -0.06785306)
(-0.01039103 0.02082487 -0.06813487)
(-0.01319042 0.02092739 -0.06761694)
(-0.01258496 0.02188919 -0.06742761)
(-0.01104128 0.02220496 -0.06759458)
(-0.008370729 0.02083427 -0.06840953)
(-0.008333166 0.02183915 -0.06810001)
(-0.006365554 0.02196821 -0.06827062)
(-0.006381723 0.02110426 -0.06854109)
(0.004791142 0.02119675 -0.06864213)
(0.004145037 0.0219237 -0.06845561)
(0.006365554 0.02196821 -0.06827062)
(0.006381723 0.02110426 -0.06854109)
(0.008370729 0.02083427 -0.06840953)
(0.008333166 0.02183915 -0.06810001)
(0.0102663 0.02178463 -0.06785306)
(0.01039103 0.02082487 -0.06813487)
(-0.004134355 0.02435662 -0.06762886)
(-0.002091974 0.02442447 -0.06769837)
(-0.002077627 0.02293495 -0.06821782)
(-0.004120801 0.02288254 -0.06814256)
(4.259058e-17 0.02296355 -0.06823984)
(1.65672e-17 0.02444397 -0.06772365)
(0.002091974 0.02442447 -0.06769837)
(0.002077627 0.02293495 -0.06821782)
(0.004120801 0.02288254 -0.06814256)
(0.004134355 0.02435662 -0.06762886)
(0.006250322 0.02413362 -0.06754629)
(0.006922264 0.02339509 -0.06774033)
(0.006242706 0.02291994 -0.06796841)
(-0.02798267 0.0004728822 -0.06633812)
(-0.02802693 0 -0.06632421)
(-0.03014076 0 -0.06539008)
(-0.03009863 0.0004731111 -0.06540527)
(-0.02787197 0.001405559 -0.06637151)
(-0.02794342 0.0009428783 -0.06634965)
(-0.03005903 0.0009435103 -0.06541838)
(-0.03001585 0.001407212 -0.06542988)
(-0.02774534 0.002395608 -0.06639621)
(-0.02760428 0.001900894 -0.06647097)
(-0.03006515 0.001908098 -0.06539454)
(-0.02970949 0.002406433 -0.06554048)
(0.02648006 0.002103001 -0.06692073)
(0.02644296 0.002450111 -0.06692359)
(0.02774534 0.002395608 -0.06639621)
(0.02760428 0.001900894 -0.06647097)
(0.0263709 0.002914895 -0.06693339)
(0.02626819 0.003394669 -0.06695117)
(0.02843744 0.003438654 -0.0660567)
(0.02848801 0.00309571 -0.06605187)
(0.02782659 0.00290711 -0.06634177)
(0.02838497 0.003895596 -0.0660539)
(0.02618511 0.003879396 -0.06695738)
(0.02614546 0.004362563 -0.06694313)
(0.02835259 0.004370041 -0.06603812)
(0.02612369 0.004846569 -0.06691833)
(0.02610772 0.005330428 -0.06688777)
(0.02831527 0.005335261 -0.06598318)
(0.02833166 0.004851567 -0.06601348)
(0.02609236 0.005813348 -0.06685353)
(0.02607562 0.006295071 -0.06681642)
(0.0282834 0.006300732 -0.06591168)
(0.02829969 0.005818611 -0.06594901)
(0.02605719 0.006775517 -0.06677661)
(0.02603749 0.007254695 -0.06673394)
(0.0282472 0.007261065 -0.06582836)
(0.02826595 0.006781521 -0.06587145)
(0.02822692 0.007739431 -0.06578254)
(0.02601634 0.00773285 -0.06668848)
(0.02599113 0.008210352 -0.06664121)
(0.02820454 0.008216671 -0.06573424)
(0.02595609 0.008687393 -0.06659437)
(0.0259066 0.009162542 -0.06654995)
(0.02814679 0.009168062 -0.06563311)
(0.02817873 0.008692859 -0.06568404)
(0.02584289 0.009632774 -0.0665083)
(0.02575821 0.01009662 -0.06647234)
(0.02804453 0.01011311 -0.065538)
(0.02810351 0.00964213 -0.0655837)
(-0.02548372 0.01059628 -0.06650037)
(-0.02565177 0.01108948 -0.06635518)
(-0.02427481 0.01115586 -0.06686015)
(-0.02431844 0.0108132 -0.06690058)
(0.02548372 0.01059628 -0.06650037)
(0.02565177 0.01108948 -0.06635518)
(0.02788899 0.01103494 -0.06545559)
(0.02797157 0.01057744 -0.06549587)
(-0.02404141 0.01209089 -0.06678189)
(-0.0241841 0.01161542 -0.06681475)
(-0.02575743 0.01159555 -0.06622762)
(-0.0264639 0.01179222 -0.06591362)
(-0.0263263 0.01214101 -0.0659054)
(-0.02380565 0.01306416 -0.06668297)
(-0.02390561 0.01257452 -0.06674131)
(-0.0261786 0.01260311 -0.06587748)
(-0.02608289 0.01308508 -0.06582145)
(-0.02359743 0.01412179 -0.06654124)
(-0.02371143 0.01357255 -0.06661497)
(-0.02600033 0.01359629 -0.06575046)
(-0.02590158 0.01415193 -0.06567215)
(-0.02554888 0.01566536 -0.06546641)
(-0.02422379 0.01598151 -0.06589233)
(-0.02349834 0.01570152 -0.06622152)
(-0.02327947 0.01480769 -0.06650413)
(-0.02576975 0.01478114 -0.06558535)
(0.02208223 0.01508713 -0.06684872)
(0.02192847 0.01575291 -0.06674568)
(0.02349834 0.01570152 -0.06622152)
(0.02327947 0.01480769 -0.06650413)
(0.02163515 0.01663871 -0.06662637)
(0.02114559 0.01763853 -0.06652629)
(0.02371852 0.01765252 -0.06564922)
(0.02400073 0.01672963 -0.06578818)
(-0.01907546 0.01979292 -0.06654598)
(-0.0196302 0.01878741 -0.06667598)
(-0.02125587 0.01874632 -0.06618734)
(-0.0219901 0.0191051 -0.06584398)
(-0.02170551 0.01988355 -0.0657078)
(0.01744838 0.02093766 -0.06664209)
(0.01682127 0.0219182 -0.06648787)
(0.01960509 0.02202808 -0.06568412)
(0.01986281 0.02126918 -0.06585659)
(0.01911027 0.02090517 -0.06619495)
(-0.01477839 0.02410011 -0.0662177)
(-0.0148361 0.02304595 -0.06657908)
(-0.0167977 0.02298181 -0.06613376)
(-0.0175636 0.02336619 -0.06579925)
(-0.01702932 0.02416659 -0.06565042)
(-0.0155182 0.02450909 -0.06589757)
(0.0133008 0.02336968 -0.06679032)
(0.0127284 0.02414842 -0.06662463)
(0.01477839 0.02410011 -0.0662177)
(0.0148361 0.02304595 -0.06657908)
(-0.0104701 0.0262567 -0.06621905)
(-0.01056198 0.02522298 -0.06660515)
(-0.01264768 0.02519703 -0.06625063)
(-0.01337566 0.02560848 -0.0659492)
(-0.01282106 0.02638334 -0.06575363)
(-0.01121616 0.02667419 -0.0659294)
(0.008956226 0.02550857 -0.06673154)
(0.008325231 0.02624626 -0.06652687)
(0.0104701 0.0262567 -0.06621905)
(0.01056198 0.02522298 -0.06660515)
(-0.006261871 0.02732966 -0.06631651)
(-0.008278178 0.02727064 -0.06611947)
(-0.009017571 0.02770104 -0.06584327)
(-0.008426979 0.02843549 -0.06560799)
(-0.006386943 0.02871859 -0.06571491)
(-0.004100358 0.02732687 -0.06648631)
(-0.004089769 0.02834258 -0.06606037)
(-0.001988553 0.02831033 -0.06617077)
(-0.001998086 0.02751295 -0.06650598)
(-1.877447e-19 0.02753574 -0.06652656)
(4.872706e-19 0.02833067 -0.06619194)
(0.001988553 0.02831033 -0.06617077)
(0.001998086 0.02751295 -0.06650598)
(0.004100358 0.02732687 -0.06648631)
(0.004089769 0.02834258 -0.06606037)
(0.004775743 0.02881209 -0.06581076)
(0.006386943 0.02871859 -0.06571491)
(0.006261871 0.02732966 -0.06631651)
(0.03289847 0 -0.06404742)
(0.03197423 0 -0.0645132)
(0.03192826 0.0004762934 -0.06453185)
(0.03285807 0.0004885433 -0.06406332)
(0.03282437 0.0009654128 -0.06407518)
(0.03188921 0.0009511415 -0.06454591)
(0.03182309 0.001422573 -0.06456986)
(0.03277263 0.001451892 -0.06409248)
(0.03070893 0.002119189 -0.06508818)
(0.03064345 0.002462675 -0.06510694)
(0.03270515 0.002427946 -0.06409741)
(0.03272112 0.001941683 -0.06410584)
(0.03158899 0.001934588 -0.06467143)
(0.03056822 0.002927379 -0.06512307)
(0.0305436 0.003404007 -0.06511145)
(0.03268825 0.003393937 -0.06406215)
(0.03270105 0.002912153 -0.06407933)
(0.03053749 0.003885874 -0.06508734)
(0.03052317 0.004367422 -0.06506352)
(0.03266167 0.004361439 -0.06401713)
(0.03267499 0.003877245 -0.06404149)
(0.03264732 0.004845413 -0.06398964)
(0.03050771 0.004850858 -0.06503652)
(0.03049212 0.005334756 -0.06500593)
(0.03263137 0.005328497 -0.06395937)
(0.03047582 0.005817888 -0.06497212)
(0.03045832 0.0062998 -0.06493538)
(0.03259312 0.0062914 -0.06389137)
(0.03261343 0.005810466 -0.06392654)
(0.03043946 0.006780473 -0.0648958)
(0.03041921 0.007259943 -0.06485341)
(0.03254592 0.007250728 -0.06381371)
(0.03257044 0.006771492 -0.06385384)
(0.0303975 0.007738163 -0.06480828)
(0.03037401 0.008215039 -0.06476058)
(0.03249277 0.008205955 -0.06372505)
(0.03252003 0.007728876 -0.06377078)
(0.03246096 0.008681643 -0.06367822)
(0.03034781 0.008690559 -0.06471078)
(0.03031716 0.009164924 -0.06465968)
(0.03241653 0.009155268 -0.0636345)
(0.03027917 0.009638319 -0.06460863)
(0.03022597 0.01010931 -0.06456154)
(0.03227922 0.01009289 -0.06356246)
(0.03235044 0.009626151 -0.06359863)
(0.03014121 0.01057488 -0.06452658)
(0.03000669 0.01103464 -0.06451229)
(0.03188866 0.01110109 -0.0635915)
(0.03228986 0.01060065 -0.06347433)
(-0.0284755 0.01215012 -0.065004)
(-0.02857405 0.01179818 -0.06502558)
(-0.0297859 0.01158163 -0.06451873)
(-0.03059061 0.01180442 -0.06410047)
(-0.0305504 0.01215056 -0.06405495)
(-0.03049803 0.01261083 -0.06399091)
(-0.0304422 0.01309125 -0.06392098)
(-0.02828663 0.01309559 -0.06490279)
(-0.02836547 0.01261558 -0.06496343)
(-0.02812688 0.01417223 -0.06474586)
(-0.02821627 0.01360796 -0.06482797)
(-0.03038059 0.01360368 -0.06384324)
(-0.03030139 0.01416763 -0.06375817)
(-0.02759795 0.01564978 -0.0646331)
(-0.02797904 0.01481769 -0.06466537)
(-0.03019888 0.01481396 -0.06365983)
(-0.03015685 0.01565068 -0.06347929)
(0.02628726 0.01674096 -0.06490547)
(0.02600898 0.01769343 -0.06476477)
(0.02821389 0.01777248 -0.06381313)
(0.02840654 0.01699586 -0.0639391)
(0.02774864 0.01667117 -0.0643124)
(-0.02551488 0.01872248 -0.06467194)
(-0.02564459 0.01982565 -0.06429074)
(-0.0240972 0.01991849 -0.06485814)
(-0.02426527 0.01913155 -0.06503215)
(0.02795977 0.01870628 -0.06365788)
(0.02551488 0.01872248 -0.06467194)
(0.02564459 0.01982565 -0.06429074)
(0.02632118 0.02017324 -0.06390803)
(0.02760656 0.01978363 -0.06348611)
(-0.02338341 0.02196067 -0.06445886)
(-0.02379645 0.02087594 -0.0646678)
(-0.02604845 0.0209388 -0.06377339)
(-0.02561329 0.0220103 -0.06358857)
(-0.02419815 0.02237875 -0.06401282)
(0.0211582 0.02412115 -0.06445542)
(0.02201961 0.02452587 -0.06401264)
(0.02332458 0.02413448 -0.06369844)
(0.02389604 0.0231461 -0.06385325)
(0.02164273 0.0230814 -0.06467489)
(-0.01909427 0.02627593 -0.06425717)
(-0.01913663 0.02525128 -0.06465417)
(-0.02178224 0.02526101 -0.06380764)
(-0.02128235 0.02630771 -0.06355286)
(-0.01976449 0.02665412 -0.06389776)
(0.01773436 0.02562042 -0.06490829)
(0.01745643 0.0263414 -0.0646947)
(0.01909427 0.02627593 -0.06425717)
(0.01913663 0.02525128 -0.06465417)
(-0.0146906 0.02841423 -0.0645044)
(-0.01531745 0.02766464 -0.06468418)
(-0.01689866 0.0273561 -0.06442111)
(-0.01773592 0.02778682 -0.06401039)
(-0.01744272 0.02849118 -0.06378091)
(-0.01274241 0.03089168 -0.06377566)
(-0.01125775 0.0310647 -0.06397068)
(-0.0105894 0.03064513 -0.0642864)
(-0.01065898 0.02977 -0.06468488)
(-0.0125882 0.02942125 -0.0644975)
(0.009097494 0.0299175 -0.06485506)
(0.008384721 0.03061647 -0.06462452)
(0.0105894 0.03064513 -0.0642864)
(0.01065898 0.02977 -0.06468488)
(0.0125882 0.02942125 -0.0644975)
(0.01274241 0.03089168 -0.06377566)
(0.01468989 0.03057353 -0.06350958)
(0.01528003 0.02978088 -0.06374653)
(0.01459357 0.0293957 -0.06408526)
(-0.00627533 0.03160357 -0.06438816)
(-0.008265008 0.03158552 -0.06417199)
(-0.008961096 0.03201929 -0.06386285)
(-0.008293432 0.0326869 -0.06361435)
(-0.006232077 0.03296617 -0.06370552)
(-0.004126089 0.03157071 -0.0645776)
(-0.004206206 0.03306647 -0.06381941)
(-0.002116104 0.03311816 -0.06389608)
(-0.00202216 0.03174877 -0.06459045)
(-5.757135e-19 0.03178011 -0.06460669)
(3.275803e-19 0.03313783 -0.06392092)
(0.002116104 0.03311816 -0.06389608)
(0.00202216 0.03174877 -0.06459045)
(0.004126089 0.03157071 -0.0645776)
(0.004206206 0.03306647 -0.06381941)
(0.006232077 0.03296617 -0.06370552)
(0.00627533 0.03160357 -0.06438816)
(0.03489766 0 -0.06298047)
(0.03485928 0.0004865855 -0.06299678)
(0.03681441 0.0004821195 -0.0618746)
(0.03684663 0 -0.06186)
(0.03483767 0.0009669569 -0.06300319)
(0.03482051 0.001449766 -0.06300341)
(0.03678641 0.00144834 -0.06187618)
(0.03679777 0.0009646528 -0.06187886)
(0.03480639 0.001934124 -0.06299821)
(0.03479503 0.002418858 -0.06298774)
(0.03676921 0.002416759 -0.06185616)
(0.03677762 0.001932582 -0.06186818)
(0.03478509 0.002903395 -0.06297276)
(0.03477477 0.003387514 -0.06295427)
(0.03674924 0.0033833 -0.06182271)
(0.03675996 0.00290042 -0.06184087)
(0.03476303 0.003871076 -0.06293287)
(0.03474939 0.004353862 -0.06290885)
(0.03672098 0.004345635 -0.06177932)
(0.03673654 0.003865174 -0.061802)
(0.03473362 0.004835766 -0.06288236)
(0.03471588 0.005317166 -0.06285329)
(0.03667534 0.005297756 -0.06173211)
(0.03670097 0.004823742 -0.06175573)
(0.03469442 0.005798124 -0.0628226)
(0.03466392 0.00627854 -0.06279325)
(0.03672087 0.006280094 -0.06161281)
(0.03665129 0.0057674 -0.0617043)
(0.03461871 0.006759365 -0.06276827)
(0.03457208 0.007239915 -0.06274038)
(0.03634804 0.007254476 -0.06172676)
(0.03643857 0.006783583 -0.06172693)
(0.03452999 0.00771766 -0.0627066)
(0.03448978 0.008190047 -0.0626688)
(0.03623817 0.008200379 -0.06167292)
(0.03629221 0.007727725 -0.06170217)
(0.03445334 0.00865662 -0.06262611)
(0.03450646 0.00916364 -0.06252465)
(0.03509931 0.009382087 -0.0621612)
(0.03592554 0.009180086 -0.06171776)
(0.03615998 0.008669912 -0.06165459)
(-0.03418605 0.0096627 -0.06262545)
(-0.03504373 0.009713616 -0.06214163)
(-0.03494728 0.01017377 -0.06212232)
(-0.03403652 0.01012589 -0.06263371)
(-0.03279714 0.01117046 -0.06311552)
(-0.03288926 0.01083034 -0.06312686)
(-0.03375894 0.01063225 -0.06269999)
(-0.0348565 0.01065097 -0.06209333)
(-0.0348052 0.01113001 -0.06203806)
(-0.03263624 0.01210592 -0.06302637)
(-0.03268835 0.01163253 -0.06308848)
(-0.03476814 0.01160859 -0.0619711)
(-0.03472118 0.0120843 -0.06190645)
(-0.03255581 0.0130733 -0.06287454)
(-0.03260326 0.01258534 -0.06294948)
(-0.03466348 0.01256195 -0.06184368)
(-0.03458566 0.01304747 -0.06178669)
(-0.03239999 0.01414242 -0.06272346)
(-0.03249308 0.01358611 -0.06279823)
(-0.0345021 0.01355389 -0.06172436)
(-0.03449721 0.01415927 -0.06159105)
(-0.03199049 0.01566323 -0.06257213)
(-0.03225196 0.0147743 -0.06265406)
(-0.03407267 0.01486389 -0.06166131)
(-0.03365127 0.01570267 -0.06168483)
(-0.03273063 0.01598913 -0.06210518)
(0.03259735 0.0167349 -0.06197867)
(0.03057625 0.01674309 -0.06299811)
(0.03035496 0.01769751 -0.06284405)
(0.03239891 0.01766071 -0.06182564)
(-0.03023694 0.01873477 -0.06259981)
(-0.03083214 0.01915222 -0.06218176)
(-0.03056595 0.01993968 -0.06206554)
(-0.02941585 0.01983971 -0.06265057)
(-0.02779149 0.02202507 -0.06266203)
(-0.0281479 0.02095008 -0.06287122)
(-0.0302724 0.02090368 -0.06189199)
(-0.02992668 0.02200367 -0.06167846)
(-0.02860376 0.0224185 -0.06215493)
(0.02616448 0.02319669 -0.06293913)
(0.02583792 0.02413477 -0.06272093)
(0.02802533 0.02414129 -0.06177199)
(0.0283574 0.02319835 -0.0619814)
(-0.02542341 0.02518593 -0.06247655)
(-0.02623687 0.02558187 -0.06197737)
(-0.02594266 0.02632855 -0.06178823)
(-0.02346712 0.02633812 -0.06276621)
(-0.02402582 0.02554507 -0.0628825)
(0.02182986 0.02745032 -0.06288034)
(0.0212864 0.02848758 -0.06260469)
(0.02210185 0.02890554 -0.06212872)
(0.02347616 0.02851267 -0.06180532)
(0.02405706 0.0277313 -0.06193733)
(0.0234124 0.02736323 -0.06234672)
(-0.01899203 0.03061507 -0.06233796)
(-0.01910057 0.02959834 -0.06279416)
(-0.0218151 0.02962116 -0.06189256)
(-0.02125048 0.03064741 -0.06158858)
(-0.0196957 0.03098938 -0.06193333)
(0.01763969 0.02993076 -0.06306339)
(0.0170387 0.03068765 -0.06286455)
(0.01899203 0.03061507 -0.06233796)
(0.01910057 0.02959834 -0.06279416)
(-0.01479431 0.03277592 -0.06237682)
(-0.01491469 0.03178168 -0.06286077)
(-0.01692491 0.03170338 -0.06238945)
(-0.01762059 0.03209213 -0.06199685)
(-0.01702587 0.03283145 -0.06177552)
(-0.01549832 0.03316836 -0.06199727)
(0.01335622 0.03212267 -0.06303765)
(0.0127439 0.0328331 -0.06279794)
(0.01479431 0.03277592 -0.06237682)
(0.01491469 0.03178168 -0.06286077)
(-0.01049681 0.03380223 -0.06269949)
(-0.01261148 0.03378337 -0.06231881)
(-0.01330207 0.03419664 -0.06194873)
(-0.01265241 0.03487932 -0.06170372)
(-0.01069226 0.03522846 -0.06187593)
(-0.008512567 0.0341287 -0.06282331)
(-0.0084565 0.03495163 -0.06237685)
(-0.006200315 0.03490488 -0.06266742)
(-0.006924082 0.03426398 -0.06294471)
(0.008512567 0.0341287 -0.06282331)
(0.0084565 0.03495163 -0.06237685)
(0.009119168 0.03538441 -0.06203857)
(0.01069226 0.03522846 -0.06187593)
(0.01049681 0.03380223 -0.06269949)
(-0.001990519 0.03593689 -0.06235846)
(-0.004092095 0.03596192 -0.06224142)
(-0.004769382 0.03640086 -0.06193731)
(-0.00405384 0.03698452 -0.0616418)
(-0.00198396 0.03714883 -0.06164437)
(5.467594e-19 0.03594792 -0.06238387)
(3.078404e-19 0.03717974 -0.06165766)
(0.00198396 0.03714883 -0.06164437)
(0.001990519 0.03593689 -0.06235846)
(-0.03858421 0 -0.0607912)
(-0.03945768 0 -0.06022836)
(-0.03942287 0.0004931477 -0.06024611)
(-0.0385485 0.0004841005 -0.06080937)
(-0.03853293 0.0009661238 -0.06081349)
(-0.03940541 0.0009700797 -0.06025174)
(-0.03939442 0.001451682 -0.06024925)
(-0.03852181 0.001449329 -0.06081093)
(-0.03851267 0.001933401 -0.06080326)
(-0.03938564 0.001935627 -0.06024139)
(-0.0393768 0.002420148 -0.06022965)
(-0.03850348 0.002417482 -0.06079176)
(-0.03849309 0.00290094 -0.06077719)
(-0.03936678 0.002904151 -0.0602148)
(-0.03935495 0.003387136 -0.0601973)
(-0.03848092 0.003383482 -0.06075994)
(-0.0384664 0.003865004 -0.06074042)
(-0.03934058 0.003869047 -0.06017765)
(-0.03932252 0.004350207 -0.06015659)
(-0.03844837 0.004345337 -0.06071936)
(-0.03842424 0.004823816 -0.06069851)
(-0.03929879 0.004831125 -0.06013539)
(-0.03926501 0.005313032 -0.06011681)
(-0.03838811 0.005298853 -0.06068175)
(-0.03832309 0.005770236 -0.06067985)
(-0.03920807 0.005800434 -0.06010892)
(-0.03914439 0.006289336 -0.06010125)
(-0.03810546 0.006284086 -0.06076581)
(-0.03722442 0.007273147 -0.06120003)
(-0.03727449 0.00681818 -0.06122193)
(-0.03910152 0.006775178 -0.06007636)
(-0.03906754 0.007259044 -0.06004193)
(-0.03713072 0.008221998 -0.0611368)
(-0.0371794 0.007744447 -0.06116957)
(-0.03902801 0.007738918 -0.0600077)
(-0.03898898 0.008218051 -0.05996935)
(-0.03699331 0.009192393 -0.06108187)
(-0.03706218 0.008706245 -0.06111134)
(-0.03894763 0.008695575 -0.05992887)
(-0.03890296 0.009169115 -0.05988729)
(-0.03691692 0.01015572 -0.06097542)
(-0.03695495 0.009675473 -0.06103046)
(-0.03886305 0.009638479 -0.05983947)
(-0.03891583 0.01015169 -0.05972019)
(-0.03678683 0.01110831 -0.06088789)
(-0.03685338 0.0106323 -0.06093261)
(-0.03862656 0.01065206 -0.05982075)
(-0.03851883 0.01111874 -0.0598053)
(-0.03667318 0.01204916 -0.06077743)
(-0.03672544 0.01158094 -0.06083686)
(-0.03843704 0.01158683 -0.05976905)
(-0.0383376 0.01205508 -0.0597403)
(0.03728497 0.01278193 -0.06025325)
(0.03671086 0.0125621 -0.06065069)
(0.03638532 0.01307662 -0.06073805)
(0.03721816 0.01312614 -0.06022053)
(0.03710557 0.01362894 -0.0601783)
(0.0362222 0.01358041 -0.06072499)
(0.03592176 0.01418889 -0.06076432)
(0.03698689 0.01420631 -0.06011781)
(0.0349474 0.01493775 -0.0611518)
(0.03476579 0.01574274 -0.0610533)
(0.03674714 0.01568305 -0.05989733)
(0.03687884 0.01488034 -0.06002105)
(0.0344959 0.01767074 -0.06067765)
(0.03504553 0.01807839 -0.06024104)
(0.0359908 0.01772166 -0.059788)
(0.03665258 0.01663364 -0.05969849)
(0.0346069 0.01664819 -0.06090321)
(-0.03260503 0.01994143 -0.06101845)
(-0.03279072 0.01915104 -0.06117194)
(-0.03377117 0.01879121 -0.06074865)
(-0.03484097 0.01886984 -0.06011685)
(-0.03462274 0.01984251 -0.05992947)
(-0.03196957 0.02196856 -0.06065747)
(-0.03234886 0.0208906 -0.06083695)
(-0.03445818 0.0208851 -0.05966947)
(-0.03368244 0.02199888 -0.05971216)
(-0.03269308 0.02235544 -0.06012817)
(0.03028333 0.02417481 -0.06068359)
(0.03083712 0.02458552 -0.06023806)
(0.0320818 0.02417169 -0.05975356)
(0.0324715 0.0231111 -0.05996231)
(0.03049598 0.02316025 -0.06097211)
(-0.0280514 0.02634242 -0.06085389)
(-0.02831764 0.02559981 -0.0610472)
(-0.02939742 0.02526037 -0.06067706)
(-0.03054266 0.02533913 -0.06007557)
(-0.03029348 0.02634622 -0.05976773)
(0.02625244 0.02776051 -0.06102593)
(0.02593842 0.02848623 -0.06082543)
(0.02802614 0.02849448 -0.05988823)
(0.02831481 0.02777166 -0.06009165)
(0.02758915 0.02737449 -0.06060921)