/*--------------------------------*- C++ -*----------------------------------*\
| =========                 |                                                 |
| \\      /  F ield         | OpenFOAM: The Open Source CFD Toolbox           |
|  \\    /   O peration     | Version:  5.x                                   |
|   \\  /    A nd           | Web:      www.OpenFOAM.org                      |
|    \\/     M anipulation  |                                                 |
\*---------------------------------------------------------------------------*/
FoamFile
{
    version     2.0;
    format      ascii;
    class       volScalarField;
    location    "31/muscle";
    object      T;
}
// * * * * * * * * * * * * * * * * * * * * * * * * * * * * * * * * * * * * * //

dimensions      [0 0 0 1 0 0 0];

internalField   nonuniform List<scalar> 
45560
(
37.00256
37.00259
37.00267
37.01141
37.01155
37.01134
37.01891
37.01937
37.02594
37.00252
37.00259
37.00265
37.00268
37.00266
37.00258
37.00273
37.01142
37.01193
37.01231
37.0124
37.01233
37.01202
37.0192
37.02024
37.02078
37.02104
37.02107
37.02041
37.0268
37.02764
37.02831
37.02862
37.02871
37.02874
37.03352
37.03434
37.03486
37.03521
37.03586
37.03637
37.0415
37.04219
37.0427
37.04315
37.0425
37.05015
37.05097
37.05065
37.00245
37.00274
37.00276
37.00282
37.00285
37.00285
37.00284
37.00274
37.00272
37.01122
37.01235
37.01278
37.01311
37.01325
37.01325
37.01306
37.01263
37.0118
37.01926
37.02071
37.02165
37.0222
37.02247
37.02249
37.02212
37.02173
37.01969
37.02644
37.02815
37.02945
37.03016
37.03056
37.03063
37.0303
37.02903
37.03269
37.03471
37.0363
37.03712
37.03762
37.03782
37.03756
37.03574
37.03892
37.04124
37.0434
37.04457
37.04528
37.04539
37.04472
37.0436
37.04859
37.05115
37.053
37.05403
37.05387
37.05302
37.05594
37.05803
37.05926
37.06016
37.05891
37.00252
37.00269
37.00285
37.00291
37.00296
37.00299
37.003
37.00299
37.00294
37.00277
37.01127
37.01244
37.01311
37.01349
37.01378
37.01394
37.01397
37.01387
37.0136
37.01324
37.01921
37.02098
37.02202
37.0228
37.02335
37.02364
37.02369
37.02345
37.02298
37.02167
37.02624
37.0281
37.02976
37.03098
37.03176
37.03219
37.03226
37.03191
37.031
37.02968
37.03258
37.03444
37.0366
37.03816
37.03914
37.0397
37.03982
37.03942
37.03821
37.03674
37.04147
37.04375
37.04566
37.04695
37.0477
37.04783
37.04731
37.04621
37.04446
37.04924
37.0518
37.05436
37.05616
37.05719
37.05734
37.05667
37.05549
37.05392
37.05774
37.06039
37.06241
37.06365
37.06421
37.06346
37.06327
37.06508
37.06652
37.06798
37.06924
37.06958
37.00252
37.00262
37.00284
37.00295
37.00303
37.00308
37.00311
37.00312
37.00311
37.00307
37.00296
37.00273
37.01101
37.01209
37.0131
37.01368
37.01408
37.01436
37.01453
37.01458
37.01451
37.01428
37.01375
37.01264
37.01797
37.02046
37.02198
37.02306
37.02383
37.02437
37.02468
37.02475
37.02457
37.0241
37.02315
37.02167
37.02772
37.02967
37.03124
37.03241
37.03321
37.03367
37.03377
37.03347
37.03272
37.03149
37.02967
37.03428
37.03648
37.03845
37.03997
37.04101
37.04161
37.04175
37.04138
37.04043
37.03907
37.03707
37.04063
37.04368
37.04606
37.04794
37.04928
37.05006
37.05026
37.04983
37.04878
37.04705
37.04521
37.048
37.05191
37.055
37.05747
37.05928
37.06036
37.06065
37.06015
37.05892
37.0564
37.05742
37.06135
37.06434
37.06654
37.06791
37.06844
37.06794
37.06651
37.06311
37.06062
37.0652
37.06898
37.07166
37.07338
37.07415
37.07339
37.07136
37.07122
37.07485
37.0768
37.07759
37.07673
37.00263
37.00256
37.00278
37.00294
37.00305
37.00312
37.00318
37.00322
37.00323
37.00322
37.00318
37.0031
37.00295
37.00273
37.01105
37.0121
37.01287
37.01363
37.01418
37.01459
37.01488
37.01506
37.01512
37.01506
37.01485
37.01442
37.01377
37.01257
37.01816
37.01976
37.0217
37.02296
37.02398
37.02475
37.0253
37.02563
37.02574
37.02559
37.02517
37.02442
37.02339
37.02159
37.02699
37.02927
37.03111
37.03261
37.03375
37.03456
37.03504
37.03519
37.03496
37.03432
37.03324
37.03162
37.02999
37.03368
37.03603
37.03831
37.04021
37.0417
37.04277
37.04341
37.0436
37.04331
37.0425
37.0412
37.03936
37.03854
37.04052
37.04298
37.04588
37.04827
37.05016
37.05152
37.05236
37.05262
37.05229
37.05132
37.04972
37.04755
37.05085
37.05482
37.05798
37.06047
37.06232
37.06347
37.06387
37.0635
37.06233
37.06017
37.05713
37.05677
37.06105
37.06503
37.06812
37.07046
37.07195
37.07254
37.07217
37.0708
37.06834
37.06661
37.0649
37.06973
37.07347
37.07641
37.07831
37.07907
37.07865
37.07693
37.07448
37.06761
37.07266
37.07667
37.08048
37.08285
37.08364
37.08334
37.08233
37.07917
37.08362
37.08642
37.0874
37.08753
37.00267
37.00255
37.00272
37.0029
37.00303
37.00314
37.00322
37.00328
37.00331
37.00333
37.00332
37.00329
37.00322
37.00312
37.00292
37.00284
37.01118
37.01167
37.01258
37.01346
37.01411
37.01464
37.01505
37.01536
37.01555
37.01563
37.01558
37.01539
37.01505
37.01452
37.01358
37.01294
37.01863
37.0198
37.02113
37.02267
37.02387
37.02485
37.02561
37.02617
37.02653
37.02666
37.02655
37.02619
37.02554
37.02458
37.02327
37.02196
37.02537
37.02688
37.02856
37.03069
37.03244
37.03388
37.035
37.03583
37.03634
37.03653
37.03637
37.03582
37.03487
37.03348
37.03174
37.03049
37.03334
37.03526
37.03777
37.04
37.04187
37.04335
37.04443
37.04511
37.04536
37.04515
37.04445
37.04325
37.04159
37.03962
37.03859
37.04009
37.04214
37.04517
37.04799
37.05037
37.05227
37.05367
37.05456
37.0549
37.05466
37.05379
37.0523
37.05028
37.04797
37.04667
37.04962
37.05379
37.0576
37.06079
37.06333
37.06524
37.06647
37.06697
37.06671
37.06562
37.06365
37.06077
37.05729
37.05398
37.05986
37.06449
37.06852
37.07174
37.07419
37.0758
37.0765
37.07624
37.07494
37.0726
37.06918
37.0633
37.06881
37.07389
37.07786
37.08093
37.08298
37.08389
37.08363
37.08204
37.07916
37.07493
37.07116
37.07716
37.08198
37.08575
37.08832
37.08949
37.08927
37.0872
37.08353
37.07851
37.08431
37.0888
37.0919
37.09385
37.09299
37.08936
37.08591
37.08932
37.09256
37.09713
37.00267
37.00256
37.00266
37.00282
37.00299
37.00312
37.00322
37.0033
37.00337
37.00341
37.00343
37.00342
37.00339
37.00333
37.00323
37.00306
37.00295
37.00289
37.01118
37.01171
37.01231
37.01306
37.01391
37.01455
37.01508
37.0155
37.01581
37.01602
37.01611
37.01608
37.01591
37.0156
37.01509
37.0143
37.01372
37.01317
37.01862
37.01978
37.0209
37.02205
37.02352
37.02468
37.02565
37.02642
37.027
37.02737
37.02753
37.02746
37.02715
37.02656
37.02566
37.02445
37.02349
37.02237
37.02537
37.02722
37.02847
37.0299
37.03194
37.03364
37.03505
37.03618
37.03703
37.03758
37.03781
37.0377
37.03723
37.03637
37.03509
37.03352
37.03255
37.03094
37.03335
37.03493
37.03678
37.03935
37.04156
37.04341
37.04489
37.04601
37.04673
37.04704
37.04691
37.0463
37.04519
37.04357
37.04162
37.04032
37.0395
37.04063
37.04195
37.04399
37.04716
37.04997
37.05235
37.05427
37.05572
37.05667
37.05708
37.05693
37.05616
37.05476
37.05276
37.05055
37.04948
37.04907
37.04935
37.05214
37.05643
37.06023
37.06345
37.06605
37.06803
37.06935
37.06995
37.06979
37.06881
37.06696
37.06424
37.06122
37.05975
37.05385
37.05762
37.06304
37.0678
37.07188
37.0752
37.07776
37.07949
37.08032
37.08018
37.07902
37.07678
37.07336
37.06951
37.06098
37.06718
37.07296
37.07798
37.08209
37.08529
37.08749
37.08859
37.0885
37.08715
37.08457
37.08059
37.06953
37.07598
37.08203
37.08705
37.09093
37.09367
37.09514
37.09511
37.09352
37.09068
37.07738
37.0842
37.09044
37.09487
37.0982
37.10036
37.10026
37.09809
37.09702
37.08663
37.09326
37.09681
37.10107
37.10472
37.10543
37.00263
37.00255
37.00266
37.00277
37.0029
37.00307
37.0032
37.0033
37.00339
37.00345
37.00349
37.00352
37.00351
37.00348
37.00343
37.00333
37.00319
37.00309
37.00299
37.00288
37.01105
37.01167
37.01231
37.01287
37.0135
37.01431
37.01495
37.01548
37.01591
37.01624
37.01646
37.01657
37.01655
37.0164
37.0161
37.01562
37.01495
37.01448
37.01391
37.0132
37.01816
37.0198
37.0209
37.02182
37.02285
37.02427
37.02543
37.0264
37.02718
37.02778
37.02818
37.02837
37.02833
37.02805
37.02751
37.02665
37.02555
37.0248
37.02388
37.02248
37.02688
37.02847
37.02967
37.03106
37.03306
37.03474
37.03615
37.03729
37.03817
37.03875
37.03903
37.03897
37.03856
37.03776
37.03655
37.03506
37.03412
37.03293
37.03129
37.03335
37.03494
37.03645
37.03822
37.0408
37.04299
37.04485
37.04636
37.04751
37.04828
37.04865
37.04859
37.04805
37.04701
37.04544
37.04357
37.04237
37.04102
37.04004
37.04013
37.04195
37.04365
37.04575
37.04899
37.05181
37.05421
37.05616
37.05766
37.05868
37.05917
37.0591
37.05842
37.0571
37.05513
37.0529
37.05159
37.05019
37.04934
37.0517
37.05453
37.05888
37.06271
37.06597
37.06863
37.07069
37.07211
37.07282
37.07277
37.0719
37.07014
37.06748
37.06446
37.06257
37.06009
37.05385
37.05695
37.06058
37.06608
37.07092
37.07508
37.07851
37.08118
37.08303
37.08401
37.08401
37.08298
37.08083
37.07751
37.07368
37.07126
37.06021
37.06434
37.07082
37.07678
37.08189
37.08615
37.08949
37.09187
37.09315
37.09324
37.09208
37.0896
37.08558
37.08063
37.07332
37.08053
37.08668
37.09188
37.09597
37.09892
37.10062
37.10081
37.09954
37.0968
37.09236
37.07346
37.08209
37.08965
37.096
37.10083
37.10445
37.10676
37.10703
37.10562
37.10268
37.08223
37.09117
37.09886
37.10423
37.1086
37.11197
37.11194
37.11046
37.10081
37.10631
37.11136
37.11687
37.00252
37.00256
37.00272
37.00282
37.0029
37.00301
37.00316
37.00329
37.0034
37.00349
37.00356
37.0036
37.00363
37.00363
37.00361
37.00355
37.00346
37.00335
37.00328
37.0032
37.00309
37.00285
37.01101
37.0121
37.01258
37.01306
37.0135
37.01403
37.0148
37.01544
37.01598
37.01643
37.01678
37.01702
37.01715
37.01715
37.01702
37.01673
37.01628
37.01573
37.01537
37.01497
37.01452
37.01329
37.01797
37.01976
37.02113
37.02205
37.02285
37.02379
37.02517
37.02633
37.02731
37.02812
37.02875
37.02919
37.02942
37.02942
37.02918
37.02867
37.02786
37.02688
37.02624
37.02549
37.02447
37.02304
37.027
37.02856
37.0299
37.03106
37.0324
37.03437
37.03606
37.03749
37.03866
37.03958
37.04022
37.04055
37.04056
37.04021
37.03947
37.03832
37.03691
37.03601
37.03491
37.03352
37.0322
37.03369
37.03526
37.03678
37.03822
37.03995
37.04252
37.04473
37.04661
37.04816
37.04937
37.05022
37.05067
37.05068
37.05023
37.04927
37.04776
37.04596
37.04482
37.04354
37.04214
37.04121
37.04054
37.04215
37.04399
37.04575
37.04791
37.0512
37.05406
37.0565
37.05851
37.06009
37.0612
37.06179
37.06183
37.06126
37.06003
37.05811
37.05585
37.05446
37.05293
37.05133
37.04962
37.05214
37.05452
37.05743
37.06186
37.06575
37.06908
37.07184
37.07402
37.07557
37.07642
37.07652
37.07579
37.07415
37.07156
37.0685
37.06662
37.0645
37.06233
37.05398
37.05762
37.06058
37.06423
37.06983
37.07477
37.07905
37.08262
37.08546
37.0875
37.08866
37.08886
37.08799
37.08598
37.08275
37.0789
37.07652
37.07362
37.06098
37.06434
37.06864
37.0754
37.08147
37.08675
37.09122
37.09479
37.0974
37.09894
37.09927
37.09832
37.09599
37.09211
37.08743
37.08491
37.07159
37.07884
37.08611
37.09249
37.09795
37.10236
37.10563
37.10762
37.10814
37.10715
37.10459
37.10019
37.0958
37.08081
37.08889
37.0965
37.10312
37.10845
37.11249
37.11507
37.1158
37.11484
37.11237
37.10766
37.09043
37.09901
37.10702
37.1133
37.11826
37.12161
37.12252
37.12172
37.12043
37.10077
37.11043
37.11722
37.12345
37.12748
37.12964
37.12914
37.11897
37.12945
37.00252
37.00262
37.00278
37.0029
37.00299
37.00307
37.00316
37.00331
37.00344
37.00356
37.00365
37.00373
37.00378
37.00382
37.00382
37.00381
37.00376
37.00367
37.00358
37.00352
37.00345
37.00336
37.00321
37.003
37.00317
37.01127
37.0121
37.01287
37.01346
37.01391
37.01431
37.0148
37.01555
37.01621
37.01678
37.01725
37.01763
37.01791
37.01808
37.01812
37.01802
37.01777
37.01736
37.01686
37.01656
37.0162
37.01574
37.01503
37.01417
37.01265
37.01921
37.02046
37.0217
37.02267
37.02352
37.02427
37.02517
37.02653
37.02772
37.02875
37.02961
37.0303
37.03081
37.03111
37.03118
37.031
37.03055
37.0298
37.02889
37.02831
37.02763
37.0268
37.02575
37.02436
37.02624
37.02772
37.02927
37.03069
37.03194
37.03306
37.03437
37.03635
37.03808
37.03957
37.04083
37.04184
37.04258
37.04302
37.04312
37.04287
37.04221
37.04113
37.0398
37.03894
37.03791
37.03667
37.0352
37.03361
37.03258
37.03428
37.03603
37.03777
37.03935
37.0408
37.04252
37.04512
37.04739
37.04936
37.05102
37.05235
37.05333
37.05392
37.05407
37.05374
37.05289
37.05147
37.04972
37.0486
37.04729
37.04577
37.04409
37.04206
37.04064
37.04299
37.04517
37.04716
37.04899
37.0512
37.05457
37.05751
37.06007
37.06222
37.06397
37.06526
37.06604
37.06625
37.06585
37.06476
37.06292
37.06068
37.05925
37.05762
37.05571
37.05352
37.05141
37.048
37.05085
37.05379
37.05643
37.05888
37.06186
37.06643
37.07045
37.07396
37.07693
37.07936
37.08116
37.08228
37.08263
37.08212
37.08067
37.0782
37.07516
37.07325
37.07106
37.06856
37.06581
37.05678
37.05986
37.06304
37.06608
37.06983
37.07562
37.08077
37.0853
37.08918
37.09235
37.09475
37.09626
37.09679
37.09622
37.09443
37.09135
37.08752
37.08513
37.08247
37.0796
37.07732
37.0633
37.06718
37.07082
37.0754
37.08248
37.08884
37.09448
37.09936
37.10339
37.10647
37.10847
37.10923
37.10864
37.10654
37.10284
37.0982
37.09523
37.09186
37.08745
37.06953
37.07332
37.07884
37.08725
37.09492
37.10182
37.10783
37.11284
37.11672
37.1193
37.12039
37.11982
37.11745
37.11312
37.10774
37.10439
37.10108
37.07346
37.08081
37.09025
37.09923
37.10758
37.11488
37.12102
37.12586
37.12915
37.13065
37.13018
37.12752
37.1226
37.11742
37.09145
37.10186
37.11202
37.12077
37.12822
37.1342
37.13831
37.1403
37.14001
37.13677
37.1303
37.10317
37.11533
37.12562
37.13467
37.1421
37.14702
37.1495
37.14941
37.14546
37.11831
37.12876
37.13994
37.14883
37.15438
37.15735
37.15975
37.13021
37.14259
37.15183
37.15843
37.16165
37.00245
37.00269
37.00284
37.00294
37.00303
37.00312
37.0032
37.00329
37.00344
37.00358
37.0037
37.0038
37.00389
37.00395
37.00399
37.00401
37.00399
37.00395
37.00387
37.00378
37.00372
37.00365
37.00358
37.00348
37.00337
37.00315
37.00317
37.01122
37.01244
37.0131
37.01363
37.01411
37.01455
37.01495
37.01544
37.01621
37.01689
37.01749
37.018
37.01843
37.01875
37.01895
37.01903
37.01897
37.01874
37.01835
37.01787
37.01757
37.01722
37.01681
37.01634
37.01581
37.01474
37.01355
37.01926
37.02098
37.02198
37.02296
37.02387
37.02468
37.02543
37.02633
37.02772
37.02895
37.03004
37.03097
37.03173
37.03231
37.03269
37.03283
37.03271
37.03231
37.0316
37.03072
37.03016
37.0295
37.02872
37.02782
37.02685
37.02591
37.02339
37.02644
37.0281
37.02967
37.03111
37.03244
37.03364
37.03474
37.03606
37.03808
37.03987
37.04145
37.0428
37.04392
37.04477
37.04532
37.04553
37.04537
37.04479
37.04376
37.04247
37.04163
37.04065
37.0395
37.03817
37.03667
37.0349
37.03269
37.03444
37.03648
37.03831
37.04
37.04156
37.04299
37.04473
37.04739
37.04976
37.05183
37.05362
37.0551
37.05623
37.05696
37.05725
37.05705
37.05629
37.05494
37.05324
37.05215
37.05087
37.0494
37.04773
37.04579
37.04368
37.03892
37.04147
37.04368
37.04588
37.04799
37.04997
37.05181
37.05406
37.05751
37.06058
37.06329
37.06562
37.06756
37.06905
37.07002
37.07042
37.07017
37.06921
37.06747
37.06527
37.06387
37.06225
37.06042
37.05839
37.05627
37.05393
37.04924
37.05191
37.05482
37.0576
37.06023
37.06271
37.06575
37.07045
37.07465
37.07838
37.08162
37.08433
37.08642
37.08782
37.08842
37.08813
37.08686
37.08452
37.08156
37.07967
37.07751
37.0751
37.07241
37.06956
37.06678
37.05742
37.06105
37.06449
37.0678
37.07092
37.07477
37.08077
37.08619
37.09103
37.09526
37.09882
37.10162
37.10352
37.10439
37.10411
37.10255
37.09962
37.09589
37.09351
37.09078
37.08774
37.08441
37.08099
37.06062
37.0649
37.06881
37.07296
37.07678
37.08147
37.08883
37.09555
37.10163
37.10699
37.11153
37.11514
37.11765
37.11888
37.11866
37.11685
37.11333
37.10884
37.10598
37.1026
37.09862
37.09459
37.06761
37.07116
37.07598
37.08053
37.08611
37.09492
37.10307
37.11053
37.11718
37.12288
37.12746
37.13072
37.13241
37.13232
37.13028
37.12618
37.12087
37.11751
37.11345
37.10916
37.07738
37.08209
37.08889
37.09923
37.10901
37.11806
37.12618
37.13321
37.13896
37.14314
37.14545
37.1456
37.14333
37.1386
37.13241
37.12838
37.12269
37.08223
37.09043
37.10186
37.1136
37.12448
37.13427
37.14286
37.15
37.15533
37.15845
37.15895
37.15641
37.15076
37.1445
37.10317
37.11719
37.12998
37.14168
37.15206
37.16085
37.16765
37.17187
37.17285
37.16984
37.16139
37.11997
37.13361
37.14787
37.15994
37.17036
37.17896
37.18451
37.1856
37.18336
37.13404
37.15187
37.16466
37.17604
37.1863
37.19298
37.18925
37.15816
37.16964
37.18214
37.1945
37.20231
37.00252
37.00274
37.00285
37.00295
37.00305
37.00314
37.00322
37.0033
37.0034
37.00356
37.0037
37.00383
37.00394
37.00403
37.0041
37.00415
37.00418
37.00417
37.00413
37.00406
37.00396
37.0039
37.00384
37.00376
37.00368
37.00359
37.00348
37.00331
37.01142
37.01235
37.01311
37.01368
37.01418
37.01464
37.01508
37.01548
37.01598
37.01678
37.01749
37.01813
37.01868
37.01915
37.01951
37.01976
37.01988
37.01985
37.01965
37.01927
37.0188
37.0185
37.01816
37.01777
37.01733
37.01682
37.01614
37.01512
37.0192
37.02071
37.02202
37.02306
37.02398
37.02485
37.02565
37.0264
37.02731
37.02875
37.03004
37.03119
37.03219
37.03304
37.0337
37.03416
37.03437
37.03431
37.03396
37.03328
37.03241
37.03186
37.03122
37.03048
37.02965
37.02871
37.02753
37.02576
37.0268
37.02815
37.02976
37.03124
37.03261
37.03388
37.03505
37.03615
37.03749
37.03957
37.04145
37.04313
37.04459
37.04583
37.0468
37.04746
37.04778
37.0477
37.04718
37.0462
37.04494
37.04413
37.04318
37.04209
37.04085
37.03947
37.03791
37.0362
37.03352
37.03471
37.0366
37.03845
37.04021
37.04187
37.04341
37.04485
37.04661
37.04936
37.05183
37.05405
37.05599
37.05762
37.05891
37.0598
37.06023
37.06014
37.05947
37.05818
37.05652
37.05544
37.0542
37.05278
37.05117
37.04941
37.0476
37.04585
37.04124
37.04375
37.04606
37.04827
37.05037
37.05235
37.05421
37.0565
37.06007
37.06329
37.06617
37.06871
37.07086
37.07257
37.07375
37.07433
37.07423
37.07338
37.07172
37.06957
37.06818
37.06658
37.06477
37.06275
37.06056
37.05818
37.0561
37.04859
37.0518
37.055
37.05798
37.06079
37.06345
37.06597
37.06908
37.07396
37.07838
37.08238
37.08591
37.08893
37.09134
37.09303
37.0939
37.09382
37.09271
37.09048
37.08756
37.08568
37.08353
37.08109
37.07835
37.07522
37.07157
37.05774
37.06135
37.06503
37.06852
37.07188
37.07508
37.07905
37.0853
37.09103
37.09623
37.10087
37.10487
37.1081
37.11041
37.11164
37.11165
37.11031
37.10751
37.10382
37.10144
37.0987
37.09563
37.09226
37.08847
37.08495
37.0652
37.06973
37.07389
37.07798
37.08189
37.08675
37.09448
37.10163
37.10818
37.11409
37.11922
37.12341
37.12648
37.12819
37.12836
37.12683
37.12347
37.11899
37.1161
37.11275
37.109
37.10492
37.10036
37.07266
37.07716
37.08203
37.08668
37.09249
37.10182
37.11053
37.11863
37.12599
37.13246
37.13782
37.14181
37.14416
37.14459
37.14292
37.139
37.13368
37.13026
37.12635
37.12203
37.11723
37.07851
37.0842
37.08964
37.0965
37.10758
37.11806
37.12791
37.13696
37.14502
37.1518
37.15695
37.16011
37.16094
37.15921
37.15478
37.14859
37.14444
37.13933
37.13523
37.08663
37.09117
37.099
37.11202
37.12448
37.13632
37.14735
37.15729
37.16579
37.17243
37.17666
37.17801
37.17634
37.1714
37.16426
37.16086
37.10077
37.11532
37.12997
37.14414
37.15746
37.1696
37.18022
37.18876
37.19446
37.19639
37.19489
37.18845
37.1183
37.13355
37.15098
37.16643
37.18073
37.19358
37.20436
37.21223
37.21432
37.21233
37.13384
37.15572
37.17191
37.18755
37.20193
37.21429
37.22461
37.22684
37.2181
37.16158
37.17703
37.19416
37.21014
37.22392
37.23907
37.24269
37.18064
37.19941
37.21676
37.23063
37.25453
37.00259
37.00276
37.00291
37.00303
37.00312
37.00322
37.0033
37.00339
37.00349
37.00365
37.0038
37.00394
37.00406
37.00416
37.00424
37.0043
37.00433
37.00433
37.00429
37.00422
37.00413
37.00407
37.004
37.00392
37.00384
37.00374
37.0036
37.00342
37.00329
37.01193
37.01278
37.01349
37.01408
37.01459
37.01505
37.0155
37.01591
37.01643
37.01725
37.018
37.01868
37.01928
37.0198
37.02021
37.0205
37.02066
37.02065
37.02048
37.02011
37.01964
37.01934
37.01899
37.0186
37.01815
37.01763
37.01696
37.0161
37.01518
37.02024
37.02165
37.0228
37.02383
37.02475
37.02561
37.02642
37.02718
37.02812
37.02961
37.03097
37.03219
37.03328
37.03422
37.03496
37.0355
37.03578
37.03577
37.03546
37.0348
37.03394
37.03339
37.03275
37.03203
37.0312
37.03026
37.02915
37.02783
37.02592
37.02764
37.02945
37.03098
37.03241
37.03375
37.035
37.03618
37.03729
37.03866
37.04083
37.0428
37.04459
37.04618
37.04754
37.04864
37.04942
37.04983
37.04984
37.04938
37.04843
37.04718
37.04637
37.04543
37.04436
37.04316
37.04181
37.04033
37.03865
37.03649
37.03434
37.0363
37.03816
37.03997
37.0417
37.04335
37.04489
37.04636
37.04816
37.05102
37.05362
37.05599
37.05809
37.0599
37.06135
37.0624
37.06296
37.06298
37.06239
37.06114
37.0595
37.05843
37.05719
37.05578
37.05421
37.05248
37.05065
37.04872
37.04742
37.0415
37.0434
37.04566
37.04794
37.05016
37.05227
37.05427
37.05616
37.05851
37.06222
37.06562
37.06871
37.07147
37.07385
37.07577
37.07717
37.07793
37.07798
37.07723
37.07563
37.07349
37.0721
37.0705
37.06868
37.06665
37.06445
37.06217
37.0601
37.05115
37.05436
37.05747
37.06047
37.06333
37.06605
37.06863
37.07184
37.07693
37.08162
37.08591
37.08977
37.09312
37.09585
37.09785
37.09898
37.09911
37.09814
37.09598
37.09307
37.09118
37.08899
37.0865
37.0837
37.08061
37.07735
37.07444
37.05594
37.06039
37.06434
37.06812
37.07174
37.0752
37.07851
37.08262
37.08918
37.09526
37.10087
37.10597
37.11043
37.11411
37.11684
37.11844
37.11873
37.11758
37.11487
37.11117
37.10875
37.10594
37.10275
37.09917
37.09521
37.09064
37.06507
37.06898
37.07347
37.07786
37.08209
37.08614
37.09121
37.09936
37.10699
37.11409
37.12059
37.12636
37.13117
37.13481
37.13702
37.13758
37.13629
37.13304
37.12852
37.12555
37.1221
37.11818
37.11385
37.10951
37.10572
37.07122
37.07667
37.08198
37.08705
37.09188
37.09795
37.10783
37.11718
37.12599
37.13415
37.14146
37.14766
37.15243
37.15544
37.15638
37.15503
37.15123
37.14586
37.14234
37.13822
37.13337
37.12756
37.12184
37.07917
37.08431
37.09044
37.096
37.10312
37.11488
37.12618
37.13696
37.14707
37.15626
37.16416
37.17036
37.1744
37.17589
37.17456
37.17024
37.16404
37.16004
37.15538
37.14961
37.08591
37.09326
37.09886
37.10702
37.12077
37.13427
37.14735
37.15978
37.17125
37.18127
37.18928
37.19465
37.19688
37.19565
37.19086
37.18399
37.18019
37.17667
37.10081
37.11043
37.12562
37.14168
37.15746
37.17262
37.18689
37.19958
37.20987
37.217
37.22024
37.21907
37.21399
37.20851
37.12877
37.14787
37.16642
37.18429
37.20169
37.21734
37.23014
37.23921
37.24397
37.24197
37.23597
37.13021
37.1519
37.1719
37.19143
37.21124
37.22907
37.24355
37.2537
37.26036
37.25601
37.15822
37.17702
37.1982
37.22138
37.24178
37.25806
37.26806
37.27806
37.18063
37.20366
37.23231
37.25575
37.27466
37.27988
37.24334
37.27116
37.29534
37.00256
37.00265
37.00282
37.00296
37.00308
37.00318
37.00328
37.00337
37.00345
37.00356
37.00373
37.00389
37.00403
37.00416
37.00427
37.00436
37.00443
37.00447
37.00447
37.00444
37.00437
37.00427
37.00421
37.00414
37.00407
37.00397
37.00387
37.00374
37.00356
37.00338
37.01141
37.01231
37.01311
37.01378
37.01436
37.01488
37.01536
37.01581
37.01624
37.01678
37.01763
37.01842
37.01915
37.0198
37.02036
37.02082
37.02115
37.02134
37.02137
37.02121
37.02085
37.02038
37.02007
37.01972
37.01931
37.01886
37.01832
37.01768
37.01688
37.01585
37.01891
37.02078
37.0222
37.02335
37.02437
37.0253
37.02617
37.027
37.02778
37.02875
37.0303
37.03173
37.03304
37.03422
37.03524
37.03607
37.03668
37.03702
37.03707
37.03678
37.03614
37.03528
37.03472
37.03408
37.03334
37.03251
37.03156
37.03045
37.0291
37.02705
37.0283
37.03016
37.03176
37.03321
37.03456
37.03583
37.03703
37.03817
37.03958
37.04184
37.04392
37.04583
37.04754
37.04903
37.05025
37.05115
37.05166
37.05173
37.05133
37.05039
37.04914
37.04832
37.04738
37.0463
37.04509
37.04372
37.04218
37.04036
37.03812
37.03486
37.03712
37.03914
37.04101
37.04277
37.04443
37.04601
37.04751
37.04937
37.05235
37.0551
37.05762
37.0599
37.06187
37.0635
37.0647
37.06539
37.06551
37.06498
37.06376
37.06211
37.06103
37.05978
37.05836
37.05676
37.055
37.05304
37.05079
37.04854
37.04219
37.04457
37.04695
37.04928
37.05152
37.05367
37.05572
37.05766
37.06009
37.06397
37.06756
37.07086
37.07385
37.07646
37.07861
37.08021
37.08114
37.08132
37.08066
37.07909
37.07693
37.07553
37.0739
37.07205
37.06999
37.06776
37.06541
37.06309
37.06063
37.05015
37.053
37.05616
37.05928
37.06232
37.06524
37.06803
37.07069
37.07402
37.07936
37.08433
37.08893
37.09312
37.0968
37.09987
37.10217
37.10356
37.10388
37.10303
37.10091
37.09797
37.09604
37.0938
37.09124
37.08838
37.08526
37.08201
37.07889
37.05803
37.06241
37.06654
37.07046
37.07419
37.07776
37.08117
37.08545
37.09235
37.09882
37.10487
37.11043
37.11536
37.11951
37.12267
37.12462
37.12519
37.12419
37.12153
37.11777
37.1153
37.11242
37.10911
37.10535
37.10105
37.09613
37.09113
37.06652
37.07166
37.0764
37.08093
37.08529
37.08949
37.09479
37.10339
37.11153
37.11922
37.12635
37.13277
37.13823
37.14245
37.14515
37.14607
37.145
37.1418
37.13719
37.13415
37.13061
37.12659
37.12205
37.11683
37.10969
37.07485
37.08048
37.08575
37.09093
37.09596
37.10236
37.11284
37.12287
37.13246
37.14146
37.14965
37.15673
37.16229
37.16597
37.1674
37.16633
37.16257
37.15705
37.1534
37.14918
37.14442
37.13909
37.1326
37.08361
37.0888
37.09487
37.10083
37.10844
37.12102
37.13321
37.14502
37.15626
37.16664
37.17572
37.183
37.18794
37.19007
37.18908
37.18474
37.17812
37.17371
37.16878
37.16406
37.16082
37.08932
37.0968
37.10423
37.1133
37.12821
37.14285
37.15728
37.17125
37.18433
37.19596
37.20542
37.212
37.21507
37.21422
37.20919
37.20107
37.19532
37.18819
37.1063
37.11722
37.13467
37.15206
37.1696
37.18689
37.20337
37.21821
37.23049
37.2392
37.24349
37.24281
37.23699
37.22649
37.2195
37.11897
37.13994
37.15994
37.18072
37.20168
37.22188
37.24034
37.25577
37.26693
37.27274
37.27188
37.26719
37.14259
37.16466
37.18755
37.21124
37.23405
37.25509
37.27277
37.28575
37.29305
37.29105
37.16965
37.19416
37.22138
37.24701
37.27099
37.2912
37.30635
37.31679
37.31169
37.19942
37.23231
37.26108
37.28834
37.31122
37.32915
37.34257
37.24334
37.27865
37.30859
37.33321
37.3549
37.00259
37.00268
37.00285
37.00299
37.00311
37.00322
37.00331
37.00341
37.00349
37.0036
37.00378
37.00395
37.0041
37.00424
37.00436
37.00446
37.00454
37.00458
37.00459
37.00456
37.00449
37.00439
37.00433
37.00426
37.00418
37.00409
37.00398
37.00384
37.00366
37.00348
37.01155
37.0124
37.01325
37.01394
37.01453
37.01506
37.01555
37.01602
37.01646
37.01702
37.01791
37.01875
37.01951
37.02021
37.02082
37.02132
37.02169
37.02192
37.02196
37.02181
37.02146
37.02098
37.02066
37.0203
37.01989
37.01942
37.01888
37.01822
37.01737
37.01631
37.01937
37.02104
37.02247
37.02364
37.02468
37.02563
37.02653
37.02737
37.02818
37.02919
37.03081
37.03231
37.0337
37.03496
37.03607
37.03698
37.03766
37.03807
37.03815
37.03789
37.03725
37.03637
37.0358
37.03514
37.03439
37.03354
37.03257
37.03145
37.03006
37.02814
37.02594
37.02862
37.03056
37.03219
37.03367
37.03504
37.03634
37.03758
37.03875
37.04022
37.04257
37.04477
37.0468
37.04864
37.05025
37.05159
37.05259
37.05319
37.05333
37.05295
37.05202
37.05074
37.04991
37.04894
37.04784
37.0466
37.04521
37.04365
37.04179
37.03892
37.03521
37.03762
37.0397
37.04161
37.0434
37.04511
37.04673
37.04828
37.05022
37.05333
37.05623
37.05891
37.06135
37.0635
37.06528
37.06663
37.06744
37.06764
37.06715
37.06593
37.06425
37.06315
37.06187
37.06041
37.05878
37.05698
37.05499
37.05262
37.05007
37.0427
37.04528
37.0477
37.05006
37.05236
37.05456
37.05667
37.05868
37.0612
37.06526
37.06905
37.07256
37.07577
37.07861
37.08098
37.08277
37.08386
37.08416
37.08355
37.08198
37.07979
37.07835
37.07668
37.07478
37.07267
37.0704
37.06805
37.06575
37.06267
37.05097
37.05403
37.05719
37.06036
37.06347
37.06647
37.06935
37.07211
37.07557
37.08116
37.08642
37.09134
37.09585
37.09987
37.10325
37.10584
37.10746
37.10796
37.1072
37.10507
37.10207
37.10009
37.09778
37.09515
37.09219
37.08899
37.08572
37.08263
37.05926
37.06365
37.06791
37.07195
37.0758
37.07949
37.08303
37.0875
37.09474
37.10162
37.1081
37.11411
37.11951
37.1241
37.12767
37.12996
37.13077
37.1299
37.12724
37.12339
37.12084
37.11787
37.11446
37.11056
37.10609
37.10105
37.09652
37.06797
37.07338
37.07831
37.08298
37.08749
37.09186
37.0974
37.10647
37.11514
37.12341
37.13117
37.13823
37.14431
37.1491
37.15227
37.15353
37.15264
37.14944
37.14471
37.14157
37.13792
37.13379
37.12918
37.12397
37.11669
37.0768
37.08285
37.08832
37.09367
37.09892
37.10563
37.11672
37.12746
37.13782
37.14766
37.15672
37.16465
37.17101
37.17533
37.17724
37.17641
37.17268
37.16699
37.16321
37.15885
37.15398
37.14844
37.14154
37.08642
37.0919
37.09819
37.10445
37.11248
37.12585
37.13896
37.15179
37.16416
37.17572
37.18598
37.19434
37.20019
37.20297
37.20231
37.19803
37.19123
37.18666
37.18148
37.17662
37.17303
37.09256
37.10107
37.1086
37.11826
37.1342
37.14999
37.16579
37.18127
37.19595
37.20919
37.22016
37.22799
37.23193
37.23156
37.2268
37.21867
37.21295
37.2048
37.11136
37.12345
37.14209
37.16085
37.18022
37.19958
37.21821
37.23527
37.24966
37.26012
37.26551
37.26551
37.26101
37.25107
37.24796
37.12945
37.14883
37.17035
37.19358
37.21734
37.24034
37.26173
37.28008
37.29361
37.30061
37.30043
37.30125
37.15182
37.17603
37.20192
37.22907
37.25509
37.27959
37.30087
37.31677
37.3252
37.32327
37.32703
37.18214
37.21014
37.24178
37.27099
37.29908
37.32372
37.34263
37.35475
37.34932
37.21676
37.25576
37.28834
37.32056
37.349
37.37166
37.38708
37.27117
37.30859
37.3449
37.37923
37.40445
37.00267
37.00266
37.00285
37.003
37.00312
37.00323
37.00333
37.00343
37.00352
37.00363
37.00382
37.00399
37.00415
37.0043
37.00443
37.00454
37.00462
37.00467
37.00468
37.00465
37.00458
37.00448
37.00442
37.00434
37.00426
37.00417
37.00406
37.00391
37.00372
37.00347
37.01135
37.01233
37.01325
37.01397
37.01458
37.01512
37.01563
37.01611
37.01657
37.01715
37.01808
37.01895
37.01976
37.0205
37.02115
37.02169
37.0221
37.02235
37.02241
37.02227
37.02191
37.02141
37.02109
37.02072
37.0203
37.01982
37.01926
37.01857
37.01767
37.0163
37.02107
37.02249
37.02369
37.02475
37.02574
37.02666
37.02753
37.02837
37.02942
37.03111
37.03269
37.03416
37.0355
37.03668
37.03766
37.0384
37.03886
37.03898
37.03872