/*--------------------------------*- C++ -*----------------------------------*\
| =========                 |                                                 |
| \\      /  F ield         | OpenFOAM: The Open Source CFD Toolbox           |
|  \\    /   O peration     | Version:  5.x                                   |
|   \\  /    A nd           | Web:      www.OpenFOAM.org                      |
|    \\/     M anipulation  |                                                 |
\*---------------------------------------------------------------------------*/
FoamFile
{
    version     2.0;
    format      ascii;
    class       volScalarField;
    location    "20/muscle";
    object      T;
}
// * * * * * * * * * * * * * * * * * * * * * * * * * * * * * * * * * * * * * //

dimensions      [0 0 0 1 0 0 0];

internalField   nonuniform List<scalar> 
45560
(
37.00256
37.00258
37.00266
37.01139
37.01151
37.01129
37.01887
37.01929
37.02584
37.00252
37.00258
37.00264
37.00266
37.00264
37.00256
37.00271
37.01142
37.01191
37.01226
37.01234
37.01225
37.01193
37.01919
37.0202
37.0207
37.02092
37.02092
37.02024
37.02679
37.02758
37.02819
37.02846
37.0285
37.02848
37.03349
37.03425
37.0347
37.03498
37.03557
37.036
37.04137
37.04198
37.04241
37.04275
37.04202
37.04982
37.05051
37.0501
37.00245
37.00274
37.00275
37.0028
37.00283
37.00283
37.00282
37.00272
37.00269
37.01122
37.01233
37.01273
37.01303
37.01315
37.01314
37.01294
37.0125
37.01166
37.01925
37.02065
37.02155
37.02206
37.0223
37.02229
37.0219
37.02149
37.01945
37.02643
37.02808
37.02931
37.02997
37.03032
37.03034
37.02997
37.02869
37.03267
37.03461
37.03612
37.03687
37.0373
37.03744
37.03712
37.0353
37.03888
37.04111
37.04317
37.04425
37.04486
37.04488
37.04415
37.04299
37.0484
37.05083
37.05255
37.05346
37.05319
37.05227
37.05553
37.05747
37.05856
37.05928
37.05794
37.00252
37.00268
37.00284
37.00289
37.00294
37.00297
37.00297
37.00296
37.00291
37.00274
37.01127
37.01241
37.01305
37.01341
37.01368
37.01382
37.01383
37.01372
37.01344
37.01306
37.01921
37.02093
37.02192
37.02266
37.02316
37.02342
37.02343
37.02317
37.02268
37.02136
37.02623
37.02803
37.02962
37.03078
37.03149
37.03187
37.0319
37.03151
37.03058
37.02923
37.03257
37.03434
37.03642
37.03789
37.0388
37.03929
37.03935
37.03889
37.03766
37.03614
37.04134
37.04351
37.04532
37.04651
37.04717
37.04722
37.04663
37.04548
37.04366
37.04905
37.05147
37.0539
37.05557
37.05647
37.05651
37.05574
37.05445
37.05276
37.05728
37.05979
37.06166
37.06275
37.06314
37.06223
37.06177
37.06423
37.06558
37.06684
37.06781
37.06784
37.00252
37.00262
37.00283
37.00294
37.003
37.00305
37.00308
37.00309
37.00308
37.00304
37.00292
37.00269
37.01102
37.01207
37.01305
37.0136
37.01397
37.01423
37.01438
37.01441
37.01432
37.01408
37.01355
37.01245
37.01798
37.02042
37.02189
37.02291
37.02363
37.02413
37.02441
37.02445
37.02424
37.02375
37.0228
37.02132
37.02766
37.02953
37.03103
37.03214
37.03287
37.03328
37.03333
37.033
37.03222
37.03097
37.02916
37.03421
37.0363
37.03818
37.03961
37.04057
37.0411
37.04118
37.04077
37.03978
37.03838
37.03638
37.04054
37.04346
37.04572
37.04749
37.04873
37.04942
37.04953
37.04904
37.04793
37.04614
37.04425
37.04787
37.05161
37.05454
37.05688
37.05855
37.0595
37.05968
37.05907
37.05774
37.05516
37.05702
37.06075
37.06357
37.0656
37.06682
37.06718
37.06652
37.06494
37.06155
37.0601
37.06443
37.06799
37.07049
37.07201
37.07254
37.07158
37.06947
37.07003
37.07341
37.07512
37.07565
37.07461
37.00263
37.00256
37.00277
37.00292
37.00303
37.0031
37.00315
37.00318
37.00319
37.00318
37.00314
37.00305
37.00291
37.00269
37.01106
37.01209
37.01283
37.01355
37.01407
37.01445
37.01473
37.01489
37.01493
37.01485
37.01463
37.0142
37.01354
37.01235
37.01818
37.01974
37.02162
37.02283
37.02379
37.02452
37.02502
37.02532
37.02539
37.02521
37.02477
37.02401
37.02298
37.02118
37.02697
37.02916
37.03092
37.03234
37.03341
37.03416
37.03459
37.03468
37.03442
37.03375
37.03265
37.03103
37.02938
37.03365
37.03589
37.03806
37.03986
37.04127
37.04225
37.04282
37.04294
37.0426
37.04175
37.04042
37.03856
37.03768
37.04046
37.0428
37.04557
37.04783
37.0496
37.05087
37.05161
37.05179
37.05138
37.05036
37.0487
37.04648
37.05061
37.0544
37.0574
37.05974
37.06145
37.06247
37.06275
37.06227
37.061
37.05878
37.05567
37.05642
37.0605
37.06428
37.06719
37.06935
37.07068
37.07111
37.07058
37.06908
37.06649
37.06453
37.06419
37.06878
37.0723
37.07504
37.07673
37.07727
37.07665
37.07478
37.0721
37.06665
37.07145
37.07525
37.07881
37.08092
37.08145
37.08084
37.07954
37.07732
37.08155
37.08404
37.0847
37.08427
37.00267
37.00255
37.00271
37.00289
37.00301
37.00311
37.00319
37.00324
37.00327
37.00329
37.00328
37.00324
37.00317
37.00306
37.00287
37.00279
37.01119
37.01167
37.01255
37.0134
37.01401
37.01452
37.0149
37.01518
37.01536
37.01541
37.01535
37.01515
37.01479
37.01426
37.01333
37.0127
37.01864
37.01978
37.02108
37.02256
37.02369
37.02462
37.02534
37.02586
37.02617
37.02627
37.02613
37.02574
37.02508
37.02412
37.02281
37.02152
37.02539
37.02687
37.02849
37.03053
37.03219
37.03355
37.03461
37.03537
37.03583
37.03597
37.03576
37.03518
37.03421
37.0328
37.03106
37.02983
37.03332
37.03516
37.03756
37.03968
37.04144
37.04284
37.04384
37.04445
37.04463
37.04436
37.04362
37.04238
37.0407
37.03871
37.0377
37.04005
37.04201
37.0449
37.04759
37.04984
37.05162
37.05292
37.05371
37.05396
37.05364
37.05272
37.05118
37.0491
37.04677
37.04547
37.04944
37.05343
37.05707
37.06008
37.06247
37.06423
37.06533
37.06571
37.06534
37.06416
37.06211
37.05916
37.05569
37.05375
37.05938
37.0638
37.06763
37.07065
37.07292
37.07436
37.07489
37.07448
37.07305
37.07059
37.06705
37.0627
37.06795
37.07278
37.07652
37.07937
37.08121
37.0819
37.08144
37.07967
37.07662
37.07231
37.0701
37.07579
37.08035
37.08387
37.08617
37.08707
37.08657
37.08428
37.08049
37.07687
37.08231
37.08655
37.08934
37.0909
37.08975
37.08609
37.08355
37.08676
37.08968
37.09356
37.00267
37.00256
37.00266
37.00281
37.00297
37.00309
37.00319
37.00327
37.00333
37.00336
37.00338
37.00337
37.00333
37.00327
37.00317
37.003
37.0029
37.00283
37.01119
37.0117
37.01229
37.01301
37.01383
37.01443
37.01493
37.01532
37.01562
37.0158
37.01587
37.01582
37.01564
37.01532
37.01481
37.01402
37.01345
37.0129
37.01864
37.01977
37.02085
37.02197
37.02337
37.02447
37.02539
37.02611
37.02664
37.02698
37.02711
37.02701
37.02666
37.02606
37.02515
37.02394
37.02299
37.02188
37.02539
37.0272
37.02841
37.02978
37.03173
37.03334
37.03468
37.03574
37.03652
37.03701
37.03719
37.03704
37.03653
37.03564
37.03435
37.03278
37.03181
37.03022
37.03333
37.03485
37.03662
37.03908
37.04117
37.04292
37.04432
37.04535
37.046
37.04624
37.04605
37.04538
37.04424
37.04259
37.04063
37.03933
37.0385
37.04058
37.04184
37.04378
37.04681
37.04948
37.05173
37.05354
37.05488
37.05573
37.05605
37.05582
37.05498
37.05353
37.05149
37.04924
37.04813
37.04766
37.04918
37.05186
37.05596
37.05958
37.06262
37.06507
37.0669
37.06809
37.06857
37.06829
37.06722
37.06528
37.06249
37.0594
37.05787
37.05362
37.05724
37.06244
37.06698
37.07084
37.07396
37.07633
37.07789
37.07855
37.07827
37.07696
37.0746
37.07106
37.06716
37.06047
37.06642
37.07194
37.0767
37.08058
37.08355
37.08553
37.08641
37.08613
37.08459
37.08183
37.07769
37.06854
37.07474
37.08049
37.08522
37.08884
37.09132
37.0925
37.09222
37.0904
37.08729
37.07588
37.08238
37.08825
37.0924
37.0954
37.09718
37.0968
37.09442
37.09283
37.08437
37.09052
37.0939
37.09784
37.10081
37.10126
37.00263
37.00255
37.00266
37.00276
37.00289
37.00305
37.00317
37.00327
37.00335
37.00341
37.00345
37.00346
37.00346
37.00343
37.00336
37.00327
37.00313
37.00303
37.00293
37.00283
37.01106
37.01167
37.01229
37.01282
37.01343
37.01421
37.01482
37.01532
37.01572
37.01603
37.01623
37.01631
37.01628
37.01611
37.0158
37.01531
37.01464
37.01417
37.01362
37.01292
37.01818
37.01978
37.02085
37.02174
37.02273
37.02409
37.02519
37.0261
37.02684
37.02739
37.02775
37.02791
37.02784
37.02753
37.02696
37.02609
37.02499
37.02424
37.02333
37.02196
37.02687
37.02841
37.02955
37.03088
37.03279
37.03439
37.03573
37.0368
37.03761
37.03814
37.03836
37.03826
37.03781
37.03698
37.03574
37.03425
37.0333
37.03212
37.03052
37.03333
37.03485
37.0363
37.038
37.04046
37.04255
37.0443
37.04572
37.04679
37.04749
37.04778
37.04765
37.04706
37.04598
37.04438
37.0425
37.04129
37.03994
37.03897
37.04009
37.04184
37.04346
37.04547
37.04856
37.05124
37.05352
37.05536
37.05674
37.05766
37.05806
37.05791
37.05716
37.05578
37.05376
37.05149
37.05016
37.04873
37.04918
37.05144
37.05415
37.05831
37.06195
37.06504
37.06755
37.06946
37.07073
37.07132
37.07115
37.07018
37.06834
37.0656
37.06252
37.0606
37.05813
37.05362
37.0566
37.06009
37.06535
37.06997
37.0739
37.07713
37.07961
37.08129
37.08209
37.08194
37.08077
37.0785
37.07505
37.07114
37.06871
37.05973
37.0637
37.06992
37.07561
37.08046
37.08447
37.08758
37.08972
37.09079
37.09068
37.08933
37.08666
37.08248
37.07741
37.07219
37.07912
37.08497
37.08987
37.09368
37.09636
37.09778
37.09772
37.0962
37.09318
37.08847
37.07213
37.08038
37.08761
37.09361
37.09814
37.10143
37.10336
37.10333
37.10162
37.09827
37.08021
37.08878
37.09597
37.10106
37.10507
37.10786
37.10754
37.10581
37.09728
37.10268
37.10738
37.11184
37.00252
37.00256
37.00271
37.00281
37.00289
37.00299
37.00314
37.00326
37.00336
37.00345
37.00351
37.00355
37.00357
37.00357
37.00354
37.00348
37.00339
37.00328
37.00321
37.00313
37.00302
37.00279
37.01102
37.01209
37.01255
37.01301
37.01343
37.01394
37.01468
37.01529
37.0158
37.01622
37.01654
37.01676
37.01686
37.01685
37.0167
37.01641
37.01595
37.01538
37.01503
37.01463
37.01419
37.01298
37.01799
37.01974
37.02108
37.02197
37.02273
37.02363
37.02495
37.02605
37.02698
37.02774
37.02832
37.02872
37.02891
37.02888
37.02861
37.02808
37.02726
37.02626
37.02563
37.02488
37.02388
37.02248
37.02697
37.02849
37.02978
37.03088
37.03217
37.03406
37.03566
37.03702
37.03812
37.03897
37.03955
37.03983
37.03979
37.03939
37.03862
37.03744
37.03602
37.03511
37.03402
37.03266
37.03136
37.03366
37.03517
37.03662
37.038
37.03965
37.04211
37.04422
37.046
37.04746
37.04858
37.04935
37.04972
37.04967
37.04916
37.04815
37.04661
37.04478
37.04364
37.04236
37.04096
37.04004
37.04048
37.04202
37.04378
37.04547
37.04754
37.05068
37.0534
37.05572
37.05761
37.05908
37.06008
37.06058
37.06053
37.05988
37.05859
37.05661
37.05431
37.05292
37.05137
37.04975
37.04943
37.05186
37.05415
37.05693
37.06117
37.06487
37.06803
37.07064
37.07266
37.07407
37.07479
37.07476
37.07392
37.07219
37.06952
37.0664
37.06449
37.06236
37.06019
37.05375
37.05724
37.06008
37.0636
37.06895
37.07367
37.07772
37.08108
37.08373
37.08559
37.08657
37.0866
37.08559
37.08345
37.08009
37.07615
37.07374
37.07086
37.06047
37.0637
37.06783
37.07431
37.08012
37.08513
37.08934
37.09268
37.09505
37.09636
37.09649
37.09534
37.09281
37.08875
37.08395
37.08136
37.07053
37.0775
37.08448
37.09056
37.09572
37.09984
37.10282
37.10453
37.10478
37.10352
37.10067
37.09599
37.09135
37.07914
37.08692
37.09421
37.10048
37.10547
37.10917
37.11139
37.11179
37.11048
37.10756
37.10244
37.08806
37.09631
37.10388
37.1098
37.11437
37.11721
37.11776
37.11653
37.11444
37.09764
37.10664
37.11313
37.11893
37.12219
37.124
37.12322
37.11441
37.1244
37.00252
37.00262
37.00277
37.00289
37.00297
37.00305
37.00314
37.00328
37.00341
37.00351
37.0036
37.00367
37.00372
37.00375
37.00376
37.00373
37.00368
37.0036
37.0035
37.00344
37.00337
37.00328
37.00313
37.00293
37.00309
37.01127
37.01207
37.01283
37.0134
37.01383
37.01421
37.01468
37.0154
37.01602
37.01656
37.01701
37.01736
37.01762
37.01776
37.01778
37.01766
37.0174
37.01697
37.01647
37.01616
37.01581
37.01535
37.01465
37.01381
37.01232
37.01921
37.02042
37.02162
37.02256
37.02337
37.02409
37.02495
37.02625
37.02739
37.02836
37.02917
37.02982
37.03028
37.03054
37.03057
37.03036
37.02988
37.02911
37.02818
37.0276
37.02692
37.0261
37.02506
37.0237
37.02623
37.02767
37.02916
37.03053
37.03173
37.0328
37.03406
37.03596
37.0376
37.03902
37.0402
37.04114
37.04181
37.04219
37.04225
37.04194
37.04125
37.04013
37.03877
37.03791
37.03688
37.03565
37.0342
37.03264
37.03257
37.03422
37.0359
37.03756
37.03908
37.04046
37.04211
37.0446
37.04677
37.04864
37.0502
37.05144
37.05233
37.05284
37.05292
37.05253
37.05162
37.05015
37.04837
37.04725
37.04594
37.04443
37.04276
37.04076
37.04054
37.04281
37.0449
37.04681
37.04856
37.05068
37.0539
37.05672
37.05914
37.06118
37.0628
37.06398
37.06466
37.06478
37.06429
37.06312
37.06123
37.05894
37.0575
37.05586
37.05396
37.05179
37.0497
37.04787
37.05061
37.05343
37.05596
37.05831
37.06117
37.06554
37.06938
37.07271
37.07553
37.07779
37.07945
37.08042
37.08063
37.08
37.07844
37.07588
37.07278
37.07085
37.06864
37.06614
37.06343
37.05642
37.05938
37.06244
37.06535
37.06895
37.0745
37.07942
37.08373
37.08739
37.09036
37.09256
37.09389
37.09423
37.09349
37.09156
37.08835
37.08444
37.082
37.0793
37.07637
37.07397
37.0627
37.06642
37.06992
37.07431
37.0811
37.08718
37.09256
37.09717
37.10095
37.10378
37.10554
37.10608
37.10526
37.10297
37.09908
37.09432
37.0913
37.08791
37.08352
37.06854
37.07219
37.0775
37.08558
37.09293
37.09952
37.10521
37.10991
37.1135
37.11578
37.11658
37.11572
37.11306
37.10847
37.10293
37.0995
37.0962
37.07213
37.07914
37.08823
37.09687
37.10487
37.1118
37.11757
37.12205
37.12496
37.1261
37.12525
37.12218
37.11687
37.11146
37.08901
37.09906
37.10883
37.11715
37.12418
37.12973
37.13338
37.13493
37.13415
37.13032
37.12347
37.09992
37.11162
37.12139
37.12995
37.13685
37.14122
37.14321
37.14257
37.13788
37.11409
37.12394
37.13449
37.14275
37.1477
37.15021
37.15226
37.12508
37.13664
37.14524
37.1512
37.15405
37.00245
37.00268
37.00283
37.00292
37.00301
37.00309
37.00317
37.00326
37.00341
37.00354
37.00365
37.00375
37.00382
37.00388
37.00392
37.00393
37.00391
37.00387
37.00379
37.00369
37.00363
37.00356
37.00349
37.0034
37.00329
37.00307
37.00308
37.01122
37.01241
37.01305
37.01355
37.01401
37.01443
37.01482
37.01529
37.01602
37.01667
37.01724
37.01773
37.01812
37.01842
37.0186
37.01865
37.01857
37.01833
37.01792
37.01743
37.01713
37.01678
37.01637
37.0159
37.01538
37.01434
37.01317
37.01925
37.02093
37.02189
37.02283
37.02369
37.02447
37.02519
37.02605
37.02739
37.02856
37.02959
37.03047
37.03119
37.03172
37.03205
37.03215
37.032
37.03157
37.03083
37.02993
37.02936
37.0287
37.02793
37.02704
37.02609
37.02515
37.0227
37.02643
37.02803
37.02953
37.03092
37.03219
37.03334
37.0344
37.03566
37.0376
37.03931
37.04081
37.04209
37.04313
37.04391
37.0444
37.04455
37.04433
37.04371
37.04264
37.04132
37.04048
37.0395
37.03835
37.03704
37.03556
37.03383
37.03267
37.03435
37.0363
37.03806
37.03968
37.04117
37.04255
37.04422
37.04677
37.04903
37.051
37.05269
37.05407
37.05511
37.05576
37.05597
37.05569
37.05488
37.05347
37.05173
37.05063
37.04935
37.04789
37.04624
37.04433
37.04228
37.03888
37.04134
37.04346
37.04557
37.04759
37.04948
37.05124
37.0534
37.05672
37.05965
37.06222
37.06443
37.06624
37.06761
37.06848
37.06877
37.06843
37.06738
37.06557
37.06332
37.0619
37.06028
37.05845
37.05643
37.05433
37.05206
37.04905
37.05161
37.0544
37.05707
37.05958
37.06195
37.06487
37.06938
37.0734
37.07695
37.08002
37.08255
37.08449
37.08573
37.08619
37.08576
37.08437
37.08193
37.07889
37.07697
37.0748
37.07237
37.06967
37.0668
37.06398
37.05702
37.0605
37.0638
37.06698
37.06997
37.07367
37.07942
37.08459
37.08921
37.09322
37.09657
37.09915
37.10085
37.10153
37.10107
37.09935
37.09628
37.09245
37.09002
37.08725
37.08418
37.08082
37.07734
37.0601
37.06419
37.06795
37.07194
37.07561
37.08012
37.08718
37.09361
37.0994
37.10449
37.10877
37.11211
37.11437
37.11535
37.1149
37.11287
37.10917
37.10453
37.10159
37.09814
37.09409
37.09016
37.06665
37.0701
37.07474
37.07911
37.08448
37.09293
37.10075
37.10787
37.11419
37.11956
37.12382
37.12676
37.12814
37.12776
37.12543
37.12108
37.11559
37.11214
37.10796
37.1035
37.07588
37.08038
37.08692
37.09687
37.10626
37.11492
37.12266
37.1293
37.13466
37.13845
37.14037
37.14013
37.13749
37.13243
37.12603
37.12195
37.11642
37.08021
37.08806
37.09906
37.11036
37.1208
37.13016
37.1383
37.14497
37.14981
37.15244
37.15243
37.14943
37.14335
37.13677
37.09991
37.11336
37.12566
37.1369
37.14676
37.155
37.1612
37.16478
37.16509
37.16156
37.15278
37.11551
37.12861
37.14242
37.15391
37.16368
37.17156
37.17631
37.17635
37.17394
37.12863
37.14599
37.15816
37.16885
37.17828
37.18412
37.17899
37.15178
37.16269
37.17443
37.18585
37.19315
37.00252
37.00274
37.00284
37.00294
37.00303
37.00311
37.00319
37.00327
37.00336
37.00351
37.00365
37.00377
37.00388
37.00396
37.00403
37.00407
37.00409
37.00408
37.00404
37.00396
37.00386
37.0038
37.00374
37.00366
37.00358
37.00349
37.00339
37.00322
37.01142
37.01233
37.01305
37.0136
37.01407
37.01452
37.01493
37.01532
37.0158
37.01656
37.01724
37.01785
37.01837
37.01881
37.01915
37.01937
37.01946
37.01941
37.01919
37.0188
37.01831
37.01801
37.01766
37.01727
37.01684
37.01634
37.01567
37.01467
37.01919
37.02065
37.02192
37.02291
37.02379
37.02462
37.02539
37.0261
37.02698
37.02836
37.02959
37.03069
37.03164
37.03243
37.03305
37.03345
37.03362
37.03352
37.03313
37.03242
37.03153
37.03097
37.03033
37.0296
37.02878
37.02785
37.02668
37.02495
37.02679
37.02808
37.02962
37.03103
37.03234
37.03355
37.03468
37.03573
37.03702
37.03902
37.04081
37.04241
37.04379
37.04495
37.04585
37.04644
37.04669
37.04656
37.04599
37.04496
37.04367
37.04284
37.04189
37.04081
37.03958
37.03821
37.03667
37.03497
37.03349
37.03461
37.03642
37.03818
37.03986
37.04144
37.04292
37.0443
37.046
37.04864
37.051
37.05311
37.05494
37.05648
37.05767
37.05847
37.05881
37.05864
37.05791
37.05656
37.05485
37.05376
37.05251
37.05109
37.0495
37.04776
37.04595
37.04418
37.04111
37.04351
37.04572
37.04783
37.04984
37.05173
37.05352
37.05572
37.05914
37.06222
37.06497
37.06738
37.06939
37.07097
37.07203
37.0725
37.07231
37.07137
37.06963
37.06741
37.066
37.0644
37.06258
37.06058
37.05841
37.05605
37.05394
37.0484
37.05147
37.05455
37.0574
37.06008
37.06262
37.06504
37.06803
37.07271
37.07695
37.08076
37.08411
37.08695
37.08918
37.09071
37.09142
37.09121
37.08996
37.08762
37.08461
37.0827
37.08053
37.07809
37.07535
37.07226
37.06872
37.05728
37.06075
37.06428
37.06763
37.07084
37.0739
37.07772
37.08372
37.08921
37.09418
37.09859
37.10235
37.10536
37.10745
37.10848
37.10829
37.10678
37.10383
37.10002
37.09758
37.09481
37.0917
37.0883
37.08446
37.08091
37.06443
37.06878
37.07278
37.0767
37.08046
37.08513
37.09255
37.0994
37.10567
37.11128
37.11613
37.12005
37.12283
37.12428
37.12421
37.12245
37.11889
37.11425
37.11128
37.10786
37.10404
37.0999
37.09518
37.07145
37.07579
37.08049
37.08497
37.09056
37.09952
37.10787
37.11561
37.12263
37.12876
37.13377
37.13742
37.13943
37.13956
37.1376
37.13343
37.1279
37.12436
37.12029
37.11577
37.11102
37.07687
37.08238
37.08761
37.09421
37.10486
37.11492
37.12436
37.13301
37.14065
37.14701
37.15175
37.15449
37.15492
37.15283
37.14808
37.14164
37.13739
37.13212
37.12747
37.08437
37.08878
37.09631
37.10882
37.1208
37.13217
37.14274
37.1522
37.16021
37.16632
37.17001
37.17086
37.16874
37.16343
37.15603
37.15254
37.09764
37.11161
37.12565
37.1393
37.15211
37.16372
37.17374
37.18161
37.18662
37.18791
37.18589
37.17918
37.11408
37.12855
37.14538
37.16028
37.17402
37.18619
37.19611
37.20307
37.20442
37.20173
37.12842
37.14958
37.1652
37.18028
37.19389
37.20526
37.21448
37.21602
37.20638
37.15485
37.16965
37.18625
37.20139
37.214
37.22766
37.2313
37.17246
37.19081
37.20718
37.21978
37.24149
37.00258
37.00275
37.00289
37.003
37.0031
37.00319
37.00327
37.00335
37.00345
37.0036
37.00375
37.00388
37.00399
37.00409
37.00416
37.00421
37.00424
37.00423
37.00419
37.00412
37.00402
37.00396
37.00389
37.00382
37.00373
37.00363
37.0035
37.00332
37.0032
37.01191
37.01273
37.01341
37.01397
37.01445
37.0149
37.01532
37.01572
37.01622
37.01701
37.01773
37.01837
37.01894
37.01943
37.01981
37.02007
37.0202
37.02017
37.01997
37.01959
37.01911
37.0188
37.01845
37.01806
37.01762
37.0171
37.01645
37.01561
37.01473
37.0202
37.02155
37.02266
37.02363
37.02452
37.02534
37.02611
37.02684
37.02774
37.02917
37.03047
37.03164
37.03267
37.03355
37.03424
37.03472
37.03496
37.03491
37.03455
37.03386
37.03298
37.03242
37.03178
37.03105
37.03024
37.02931
37.02823
37.02695
37.0251
37.02758
37.02931
37.03078
37.03214
37.03341
37.03461
37.03574
37.0368
37.03812
37.0402
37.04209
37.04379
37.0453
37.04658
37.0476
37.0483
37.04865
37.04859
37.04808
37.04708
37.04579
37.04497
37.04402
37.04296
37.04176
37.04044
37.03897
37.03733
37.03527
37.03425
37.03612
37.03789
37.03961
37.04126
37.04283
37.04432
37.04572
37.04746
37.0502
37.05269
37.05494
37.05694
37.05864
37.05999
37.06094
37.06141
37.06134
37.06068
37.05937
37.05767
37.05659
37.05534
37.05394
37.05237
37.05067
37.04885
37.04693
37.04561
37.04137
37.04317
37.04532
37.04749
37.0496
37.05162
37.05354
37.05536
37.05761
37.06118
37.06443
37.06738
37.06999
37.07223
37.07402
37.07529
37.07593
37.07587
37.07503
37.07333
37.07113
37.06972
37.06811
37.06629
37.06427
37.06209
37.05981
37.05768
37.05083
37.0539
37.05688
37.05974
37.06247
37.06507
37.06755
37.07064
37.07553
37.08002
37.08411
37.08777
37.09093
37.09349
37.09531
37.09627
37.09625
37.09514
37.09286
37.08985
37.08792
37.08572
37.08323
37.08044
37.07739
37.07417
37.07127
37.05553
37.05979
37.06357
37.06719
37.07065
37.07396
37.07713
37.08108
37.08739
37.09322
37.09859
37.10343
37.10765
37.11109
37.11359
37.11497
37.11506
37.11372
37.11084
37.10702
37.10454
37.10171
37.0985
37.09492
37.09099
37.08657
37.06422
37.06799
37.0723
37.07652
37.08058
37.08446
37.08934
37.09717
37.10448
37.11128
37.11749
37.12295
37.12747
37.13081
37.13274
37.13303
37.1315
37.12803
37.12334
37.1203
37.11679
37.1128
37.1084
37.1039
37.09999
37.07003
37.07525
37.08035
37.08522
37.08987
37.09572
37.10521
37.11419
37.12263
37.13043
37.13738
37.14321
37.14761
37.15026
37.15087
37.14922
37.14515
37.13955
37.13591
37.13168
37.12674
37.12092
37.11521
37.07732
37.08231
37.08824
37.09361
37.10047
37.1118
37.12266
37.13301
37.14269
37.15145
37.15891
37.16464
37.16823
37.16931
37.16759
37.16292
37.15641
37.15224
37.1474
37.14139
37.08355
37.09052
37.09597
37.10388
37.11715
37.13016
37.14274
37.15468
37.16565
37.17514
37.18257
37.18738
37.18908
37.18736
37.18208
37.17474
37.17062
37.16686
37.09728
37.10664
37.12139
37.1369
37.1521
37.16674
37.18045
37.1925
37.20207
37.20845
37.21101
37.20925
37.20349
37.19714
37.12394
37.14242
37.16028
37.17762
37.19444
37.20937
37.22124
37.22928
37.23326
37.23067
37.22373
37.12509
37.14602
37.16519
37.18423
37.20351
37.22054
37.23395
37.24281
37.24861
37.24385
37.15184
37.16964
37.19048
37.21318
37.23271
37.24776
37.25608
37.26515
37.17246
37.1954
37.22372
37.24621
37.2638
37.26665
37.23449
37.26123
37.28426
37.00256
37.00264
37.0028
37.00294
37.00305
37.00315
37.00324
37.00333
37.00341
37.00351
37.00367
37.00382
37.00396
37.00409
37.00419
37.00428
37.00434
37.00437
37.00437
37.00433
37.00426
37.00416
37.0041
37.00403
37.00395
37.00386
37.00375
37.00363
37.00346
37.00328
37.01139
37.01226
37.01303
37.01368
37.01423
37.01473
37.01518
37.01562
37.01603
37.01654
37.01736
37.01812
37.01881
37.01943
37.01996
37.02038
37.02069
37.02085
37.02084
37.02066
37.02029
37.01979
37.01948
37.01913
37.01873
37.01828
37.01776
37.01713
37.01636
37.01536
37.01887
37.0207
37.02206
37.02316
37.02413
37.02502
37.02586
37.02664
37.02739
37.02832
37.02981
37.03119
37.03243
37.03355
37.03451
37.03529
37.03584
37.03613
37.03613
37.0358
37.03512
37.03423
37.03367
37.03302
37.03228
37.03146
37.03053
37.02946
37.02815
37.02617
37.02819
37.02997
37.03149
37.03287
37.03416
37.03537
37.03652
37.03761
37.03897
37.04114
37.04313
37.04495
37.04658
37.04798
37.04912
37.04993
37.05037
37.05038
37.04991
37.04892
37.04763
37.0468
37.04585
37.04477
37.04357
37.04223
37.04073
37.03896
37.03681
37.0347
37.03687
37.0388
37.04057
37.04225
37.04384
37.04535
37.04679
37.04858
37.05144
37.05407
37.05648
37.05864
37.0605
37.06202
37.06311
37.06371
37.06373
37.06312
37.06183
37.06012
37.05903
37.05777
37.05635
37.05477
37.05303
37.05111
37.04892
37.04676
37.04198
37.04425
37.04651
37.04873
37.05087
37.05292
37.05488
37.05674
37.05908
37.0628
37.06624
37.06939
37.07223
37.07469
37.0767
37.07816
37.07897
37.07904
37.07827
37.0766
37.07437
37.07295
37.07131
37.06946
37.06742
37.0652
37.06288
37.06057
37.05818
37.04982
37.05255
37.05557
37.05855
37.06145
37.06423
37.0669
37.06946
37.07266
37.07779
37.08255
37.08695
37.09093
37.09442
37.09729
37.09941
37.10061
37.10077
37.09977
37.09751
37.09447
37.09251
37.09026
37.08771
37.08486
37.08177
37.07855
37.07539
37.05747
37.06166
37.0656
37.06935
37.07292
37.07633
37.07961
37.08373
37.09036
37.09657
37.10235
37.10765
37.11233
37.11622
37.11913
37.12085
37.12119
37.12
37.11715
37.11327
37.11074
37.10784
37.10454
37.1008
37.09657
37.0918
37.08694
37.06558
37.07049
37.07504
37.07937
37.08355
37.08758
37.09268
37.10095
37.10877
37.11613
37.12295
37.12904
37.13418
37.13809
37.14048
37.14112
37.13979
37.13636
37.13159
37.12847
37.12489
37.12084
37.11628
37.11109
37.10437
37.07341
37.07881
37.08387
37.08884
37.09368
37.09983
37.10991
37.11956
37.12875
37.13738
37.14519
37.15186
37.15703
37.16031
37.16139
37.16
37.15596
37.15022
37.14647
37.14218
37.13737
37.13202
37.12546
37.08155
37.08655
37.0924
37.09813
37.10547
37.11757
37.1293
37.14065
37.15145
37.16137
37.16997
37.17675
37.1812
37.18289
37.18149
37.17679
37.1699
37.16536
37.16031
37.15545
37.15221
37.08676
37.0939
37.10106
37.1098
37.12418
37.1383
37.1522
37.16565
37.1782
37.18925
37.1981
37.20406
37.20655
37.20519
37.19971
37.19128
37.18539
37.17817
37.10268
37.11313
37.12995
37.14676
37.16372
37.18045
37.19633
37.21049
37.22199
37.22989
37.23342
37.2321
37.22572
37.21498
37.2081
37.11441
37.13449
37.15391
37.17402
37.19444
37.21401
37.23167
37.24615
37.25622
37.26104
37.25946
37.25399
37.13665
37.15817
37.18028
37.20351
37.22566
37.24583
37.26247
37.27411
37.28017
37.27757
37.1627
37.18625
37.21318
37.23812
37.26115
37.28023
37.29378
37.30244
37.29726
37.19081
37.22372
37.25168
37.27791
37.29965
37.31586
37.32638
37.23449
37.26865
37.29749
37.32108
37.34153
37.00259
37.00266
37.00283
37.00297
37.00308
37.00318
37.00327
37.00336
37.00345
37.00355
37.00372
37.00388
37.00403
37.00416
37.00428
37.00437
37.00444
37.00447
37.00448
37.00444
37.00437
37.00427
37.00421
37.00413
37.00405
37.00396
37.00386
37.00372
37.00355
37.00337
37.01151
37.01234
37.01315
37.01382
37.01438
37.01489
37.01536
37.0158
37.01622
37.01676
37.01762
37.01842
37.01915
37.01981
37.02038
37.02085
37.02119
37.02138
37.0214
37.02123
37.02085
37.02035
37.02003
37.01967
37.01926
37.0188
37.01826
37.01762
37.0168
37.01578
37.0193
37.02092
37.0223
37.02342
37.02441
37.02532
37.02617
37.02698
37.02775
37.02872
37.03028
37.03172
37.03305
37.03424
37.03529
37.03614
37.03676
37.03711
37.03714
37.03683
37.03615
37.03525
37.03466
37.034
37.03325
37.03241
37.03146
37.03037
37.02903
37.02717
37.02584
37.02846
37.03032
37.03187
37.03328
37.03459
37.03583
37.03701
37.03814
37.03955
37.04181
37.04391
37.04585
37.0476
37.04912
37.05037
37.05128
37.0518
37.05187
37.05142
37.05044
37.04912
37.04826
37.04729
37.04619
37.04496
37.0436
37.04207
37.04027
37.03751
37.03498
37.0373
37.03929
37.0411
37.04282
37.04445
37.046
37.04748
37.04934
37.05233
37.05511
37.05767
37.05999
37.06202
37.06368
37.06491
37.06562
37.06572
37.06515
37.06386
37.06212
37.06099
37.0597
37.05825
37.05663
37.05486
37.0529
37.0506
37.04816
37.04241
37.04486
37.04717
37.04942
37.05161
37.05371
37.05573
37.05766
37.06008
37.06398
37.06761
37.07097
37.07402
37.0767
37.07892
37.08056
37.08152
37.08169
37.08097
37.0793
37.07703
37.07556
37.07388
37.07198
37.06989
37.06763
37.0653
37.06303
37.06011
37.05051
37.05346
37.05647
37.0595
37.06247
37.06533
37.06809
37.07073
37.07407
37.07944
37.08448
37.08918
37.09348
37.09729
37.10047
37.10286
37.10429
37.1046
37.10367
37.10141
37.0983
37.09627
37.09395
37.09132
37.08839
37.08522
37.08196
37.07881
37.05856
37.06275
37.06681
37.07068
37.07436
37.07789
37.08129
37.08558
37.09256
37.09915
37.10535
37.11109
37.11622
37.12055
37.12385
37.12589
37.12645
37.12536
37.12251
37.11852
37.11592
37.11292
37.1095
37.10563
37.10124
37.09633
37.09191
37.06684
37.07201
37.07673
37.08121
37.08553
37.08972
37.09505
37.10378
37.11211
37.12005
37.12747
37.13418
37.13992
37.14437
37.14721
37.14816
37.14699
37.14355
37.13864
37.13542
37.13172
37.12756
37.12294
37.11777
37.11091
37.07512
37.08092
37.08617
37.09131
37.09636
37.10282
37.11349
37.12382
37.13377
37.14321
37.15186
37.15936
37.16529
37.16919
37.17071
37.16954
37.1655
37.15958
37.1557
37.15126
37.14633
37.14076
37.13373
37.08404
37.08934
37.0954
37.10143
37.10917
37.12204
37.13466
37.14701
37.1589
37.16997
37.17971
37.18753
37.19285
37.19515
37.19406
37.1894
37.18232
37.17761
37.1723
37.16731
37.16364
37.08968
37.09784
37.10507
37.11436
37.12973
37.14497
37.16021
37.17514
37.18925
37.20186
37.21216
37.21933
37.22264
37.22172
37.21649
37.20809
37.20229
37.19414
37.10738
37.11893
37.13685
37.155
37.17374
37.1925
37.21049
37.22681
37.24036
37.24992
37.25451
37.25381
37.24876
37.23882
37.23579
37.12439
37.14275
37.16368
37.18618
37.20937
37.23167
37.2522
37.26952
37.28185
37.28778
37.28682
37.28677
37.14523
37.16884
37.19389
37.22054
37.24583
37.2694
37.28953
37.30398
37.31106
37.30847
37.31085
37.17442
37.20139
37.23271
37.26115
37.28821
37.31162
37.32879
37.33891
37.33336
37.20718
37.24621
37.27791
37.30899
37.33618
37.35694
37.36908
37.26123
37.29749
37.33255
37.36566
37.38948
37.00266
37.00264
37.00283
37.00297
37.00309
37.00319
37.00329
37.00338
37.00346
37.00357
37.00375
37.00392
37.00407
37.00421
37.00434
37.00444
37.00451
37.00455
37.00456
37.00453
37.00445
37.00435
37.00428
37.00421
37.00413
37.00403
37.00392
37.00378
37.0036
37.00336
37.0113
37.01225
37.01314
37.01383
37.01441
37.01493
37.01541
37.01587
37.01631
37.01686
37.01776
37.0186
37.01937
37.02007
37.02069
37.02119
37.02156
37.02178
37.02181
37.02165
37.02126
37.02075
37.02042
37.02004
37.01962
37.01914
37.01859
37.01792
37.01705
37.01573
37.02092
37.02229
37.02343
37.02445
37.02539
37.02627
37.02711
37.02791
37.02891
37.03054
37.03205
37.03345
37.03472
37.03584
37.03676