/*--------------------------------*- C++ -*----------------------------------*\
| =========                 |                                                 |
| \\      /  F ield         | OpenFOAM: The Open Source CFD Toolbox           |
|  \\    /   O peration     | Version:  5.x                                   |
|   \\  /    A nd           | Web:      www.OpenFOAM.org                      |
|    \\/     M anipulation  |                                                 |
\*---------------------------------------------------------------------------*/
FoamFile
{
    version     2.0;
    format      ascii;
    class       volScalarField;
    location    "20/muscle";
    object      T;
}
// * * * * * * * * * * * * * * * * * * * * * * * * * * * * * * * * * * * * * //

dimensions      [0 0 0 1 0 0 0];

internalField   nonuniform List<scalar> 
45560
(
37.00271
37.00273
37.00282
37.0121
37.01222
37.012
37.02014
37.02056
37.02767
37.00267
37.00272
37.00278
37.0028
37.00278
37.0027
37.00286
37.01214
37.01261
37.01296
37.01303
37.01295
37.01264
37.0205
37.02149
37.02197
37.02219
37.0222
37.02153
37.02875
37.02949
37.03005
37.03031
37.03038
37.03042
37.03613
37.03682
37.03716
37.03743
37.03811
37.03868
37.04471
37.04528
37.04567
37.04607
37.04536
37.05413
37.05485
37.05439
37.00259
37.00288
37.00289
37.00294
37.00296
37.00296
37.00296
37.00286
37.00284
37.0119
37.01303
37.01342
37.01372
37.01383
37.01383
37.01364
37.0132
37.01236
37.02051
37.02193
37.02281
37.0233
37.02353
37.02353
37.02316
37.02281
37.02068
37.02829
37.02994
37.03114
37.03176
37.0321
37.03215
37.03182
37.03057
37.03514
37.03707
37.03853
37.03923
37.03965
37.03982
37.03958
37.03775
37.04205
37.04425
37.04629
37.04732
37.04792
37.04798
37.04729
37.04615
37.05258
37.05497
37.05665
37.05756
37.0573
37.05639
37.06062
37.0625
37.06361
37.06441
37.06307
37.00266
37.00282
37.00298
37.00303
37.00307
37.0031
37.0031
37.0031
37.00305
37.00288
37.01197
37.01311
37.01373
37.01408
37.01433
37.01447
37.01449
37.01439
37.01413
37.01379
37.02049
37.02219
37.02315
37.02386
37.02434
37.0246
37.02463
37.02439
37.02393
37.02263
37.0281
37.02983
37.03139
37.03252
37.03321
37.03358
37.03362
37.03327
37.03237
37.03107
37.03505
37.03671
37.03875
37.04018
37.04105
37.04153
37.04161
37.0412
37.04
37.03856
37.04447
37.04652
37.04827
37.04942
37.05007
37.05014
37.04961
37.04853
37.04684
37.05329
37.0555
37.05784
37.05947
37.06036
37.06043
37.05973
37.05858
37.05713
37.0625
37.06478
37.06654
37.06763
37.06809
37.06732
37.06724
37.07044
37.0716
37.07284
37.0739
37.07424
37.00267
37.00276
37.00296
37.00307
37.00313
37.00318
37.00321
37.00322
37.00321
37.00317
37.00306
37.00283
37.01171
37.01276
37.01373
37.01426
37.01461
37.01486
37.01501
37.01505
37.01497
37.01475
37.01424
37.01315
37.0192
37.02167
37.0231
37.02409
37.02478
37.02527
37.02554
37.02559
37.02541
37.02495
37.02403
37.02259
37.02948
37.03128
37.03273
37.0338
37.03451
37.03491
37.03498
37.03468
37.03394
37.03275
37.03102
37.03665
37.0386
37.0404
37.04179
37.04272
37.04325
37.04335
37.04297
37.04204
37.04073
37.03886
37.04364
37.04644
37.0486
37.0503
37.0515
37.05218
37.05232
37.05188
37.05085
37.0492
37.04746
37.05206
37.05567
37.05844
37.06066
37.06228
37.06322
37.06343
37.06291
37.06171
37.05931
37.06215
37.06574
37.06837
37.07032
37.07151
37.07194
37.07142
37.07008
37.06676
37.06619
37.07047
37.07391
37.07627
37.07778
37.07838
37.07761
37.07554
37.07694
37.08026
37.08198
37.08255
37.08161
37.00279
37.0027
37.00291
37.00305
37.00315
37.00322
37.00327
37.0033
37.00331
37.0033
37.00327
37.00318
37.00304
37.00283
37.01177
37.01281
37.01351
37.0142
37.0147
37.01507
37.01533
37.01549
37.01554
37.01547
37.01527
37.01486
37.01424
37.01305
37.01944
37.021
37.02284
37.02399
37.02492
37.02562
37.02611
37.0264
37.02648
37.02633
37.02592
37.0252
37.02424
37.02246
37.02882
37.03092
37.0326
37.03396
37.035
37.03573
37.03616
37.03627
37.03603
37.0354
37.03437
37.03284
37.03129
37.03614
37.03821
37.04027
37.042
37.04335
37.04431
37.04487
37.04502
37.04471
37.04392
37.04269
37.04097
37.04031
37.04373
37.0458
37.04843
37.05059
37.05229
37.05352
37.05425
37.05446
37.05411
37.05317
37.05164
37.0496
37.0547
37.05829
37.06114
37.06338
37.06503
37.06603
37.06635
37.06596
37.06482
37.06276
37.05983
37.06163
37.06544
37.06903
37.07181
37.07389
37.0752
37.07568
37.07527
37.07393
37.07157
37.06995
37.07018
37.07456
37.07795
37.08058
37.08226
37.08286
37.08238
37.08066
37.07827
37.07377
37.07837
37.08195
37.08539
37.08748
37.08809
37.08768
37.08662
37.0852
37.08924
37.0917
37.09246
37.09223
37.00283
37.00269
37.00285
37.00302
37.00314
37.00323
37.0033
37.00336
37.00339
37.0034
37.0034
37.00336
37.0033
37.0032
37.00301
37.00293
37.01191
37.01237
37.01325
37.01405
37.01464
37.01512
37.01549
37.01576
37.01594
37.016
37.01594
37.01576
37.01543
37.01494
37.01403
37.01341
37.01992
37.02106
37.02232
37.02374
37.02481
37.0257
37.0264
37.0269
37.02721
37.02732
37.02721
37.02685
37.02624
37.02534
37.02409
37.0228
37.02727
37.02875
37.03029
37.03223
37.03381
37.03512
37.03614
37.03688
37.03734
37.03749
37.03731
37.03678
37.03587
37.03456
37.03293
37.03174
37.03583
37.03756
37.0398
37.0418
37.0435
37.04484
37.04582
37.04642
37.04662
37.04639
37.04571
37.04457
37.04302
37.04119
37.04027
37.04331
37.04511
37.0478
37.05034
37.05249
37.05421
37.05547
37.05625
37.05653
37.05626
37.05542
37.054
37.0521
37.04998
37.04875
37.05356
37.05734
37.06079
37.06367
37.06596
37.06768
37.06876
37.06918
37.06888
37.06783
37.06593
37.06319
37.05995
37.05889
37.06435
37.06854
37.07218
37.07509
37.07728
37.07871
37.07929
37.07898
37.0777
37.07545
37.07218
37.06869
37.07376
37.07834
37.08194
37.08469
37.08652
37.08727
37.08694
37.08535
37.08259
37.07843
37.07697
37.08244
37.08679
37.09019
37.09248
37.09345
37.09312
37.0911
37.08754
37.08453
37.08989
37.09395
37.0967
37.09836
37.09738
37.09386
37.092
37.09508
37.09796
37.10202
37.00283
37.0027
37.0028
37.00294
37.0031
37.00322
37.00331
37.00338
37.00344
37.00347
37.00349
37.00348
37.00345
37.0034
37.0033
37.00314
37.00304
37.00298
37.01191
37.0124
37.01297
37.01368
37.01446
37.01504
37.01551
37.01589
37.01617
37.01636
37.01643
37.01639
37.01623
37.01593
37.01546
37.0147
37.01415
37.01361
37.01992
37.02104
37.0221
37.02317
37.0245
37.02556
37.02643
37.02713
37.02765
37.02798
37.02812
37.02804
37.02773
37.02717
37.02633
37.02518
37.02426
37.02317
37.02727
37.0291
37.03024
37.03153
37.03337
37.03491
37.03619
37.03721
37.03798
37.03846
37.03866
37.03853
37.03807
37.03725
37.03605
37.03458
37.03368
37.03211
37.03583
37.03725
37.03892
37.04123
37.04322
37.0449
37.04625
37.04725
37.0479
37.04816
37.048
37.0474
37.04634
37.04482
37.04301
37.04179
37.04107
37.04388
37.04498
37.04676
37.0496
37.05213
37.05429
37.05603
37.05733
37.05817
37.05852
37.05834
37.05759
37.05626
37.05437
37.05233
37.05137
37.05108
37.05338
37.05587
37.05973
37.06317
37.06608
37.06844
37.07022
37.07139
37.07191
37.07171
37.07075
37.06897
37.06638
37.06356
37.06217
37.05884
37.0623
37.06722
37.07153
37.07523
37.07823
37.08054
37.08208
37.08279
37.0826
37.08144
37.07928
37.07601
37.07235
37.06661
37.07225
37.07752
37.08206
37.08579
37.08867
37.09064
37.09158
37.09142
37.09006
37.08756
37.08367
37.07556
37.08137
37.08687
37.09142
37.09493
37.09739
37.09865
37.09851
37.09692
37.09412
37.08356
37.08976
37.09548
37.0995
37.10248
37.10435
37.10413
37.10197
37.10076
37.09295
37.09887
37.10209
37.10593
37.1091
37.10972
37.00279
37.00269
37.0028
37.0029
37.00302
37.00317
37.00329
37.00338
37.00346
37.00351
37.00355
37.00357
37.00357
37.00354
37.00348
37.00339
37.00326
37.00317
37.00307
37.00297
37.01177
37.01237
37.01297
37.01349
37.01408
37.01482
37.0154
37.01588
37.01627
37.01656
37.01676
37.01685
37.01683
37.01668
37.0164
37.01594
37.01531
37.01485
37.01431
37.01363
37.01944
37.02106
37.0221
37.02295
37.0239
37.02519
37.02624
37.02711
37.02782
37.02836
37.02872
37.02888
37.02883
37.02856
37.02804
37.02723
37.0262
37.02548
37.0246
37.02325
37.02875
37.03024
37.03132
37.03257
37.03439
37.03591
37.03719
37.03823
37.03901
37.03954
37.03977
37.0397
37.03929
37.03853
37.03738
37.036
37.03511
37.03399
37.03243
37.03584
37.03726
37.03863
37.04022
37.04254
37.04453
37.04622
37.04759
37.04862
37.04932
37.04963
37.04954
37.04901
37.04802
37.04654
37.04479
37.04367
37.04241
37.04156
37.04335
37.04498
37.04648
37.04835
37.05125
37.0538
37.05598
37.05776
37.05911
37.06002
37.06044
37.06034
37.05967
37.05841
37.05654
37.05446
37.05325
37.05196
37.05337
37.05547
37.05802
37.06195
37.06542
37.06837
37.0708
37.07266
37.07393
37.07454
37.07444
37.07358
37.07189
37.06936
37.06651
37.06473
37.06243
37.05884
37.06171
37.06499
37.06997
37.07437
37.07814
37.08125
37.08367
37.08534
37.08618
37.08612
37.08509
37.08302
37.07983
37.07619
37.0739
37.0659
37.06966
37.07557
37.08099
37.08562
37.08949
37.09253
37.09466
37.09578
37.09579
37.09462
37.0922
37.08831
37.08358
37.07897
37.08551
37.09111
37.09584
37.09956
37.10222
37.10371
37.10379
37.10248
37.09977
37.09547
37.07992
37.0879
37.09477
37.10059
37.10499
37.10826
37.11028
37.11042
37.10895
37.10597
37.08874
37.09703
37.10402
37.10895
37.11292
37.11584
37.11575
37.11425
37.10637
37.11159
37.11628
37.12087
37.00267
37.0027
37.00285
37.00294
37.00302
37.00311
37.00326
37.00337
37.00347
37.00355
37.00361
37.00366
37.00368
37.00368
37.00365
37.0036
37.00351
37.00341
37.00334
37.00327
37.00316
37.00293
37.01171
37.01281
37.01325
37.01368
37.01408
37.01456
37.01526
37.01585
37.01634
37.01674
37.01705
37.01727
37.01738
37.01738
37.01725
37.01698
37.01655
37.01602
37.01569
37.01532
37.0149
37.01367
37.0192
37.02101
37.02233
37.02318
37.0239
37.02475
37.026
37.02706
37.02795
37.02868
37.02925
37.02964
37.02984
37.02983
37.0296
37.02911
37.02835
37.02742
37.02682
37.02612
37.02515
37.02375
37.02883
37.0303
37.03153
37.03258
37.03379
37.03558
37.03711
37.03841
37.03948
37.04031
37.04088
37.04118
37.04116
37.04082
37.04011
37.03901
37.03769
37.03684
37.03581
37.0345
37.03325
37.03615
37.03756
37.03893
37.04022
37.04178
37.04411
37.04612
37.04783
37.04924
37.05034
37.0511
37.05149
37.05148
37.05103
37.0501
37.04867
37.04697
37.04591
37.04472
37.04342
37.04261
37.04375
37.04511
37.04676
37.04835
37.05029
37.05326
37.05585
37.05808
37.05991
37.06135
37.06234
37.06287
37.06287
37.06229
37.06111
37.05928
37.05715
37.05586
37.05442
37.05293
37.05356
37.05587
37.05802
37.06064
37.06466
37.06819
37.07122
37.07375
37.07573
37.07712
37.07788
37.07792
37.07718
37.0756
37.07313
37.07022
37.06845
37.06647
37.06442
37.05889
37.0623
37.06498
37.06831
37.07339
37.07788
37.08177
37.08503
37.08761
37.08946
37.09049
37.09061
37.08973
37.08779
37.08468
37.081
37.07874
37.07599
37.06661
37.06966
37.07359
37.07974
37.08527
37.09008
37.09415
37.09741
37.09978
37.10114
37.10138
37.1004
37.09812
37.09437
37.08989
37.08746
37.07736
37.08397
37.09061
37.09644
37.10144
37.10546
37.10843
37.11021
37.1106
37.10955
37.107
37.1027
37.09852
37.0867
37.0941
37.10109
37.10715
37.11203
37.11572
37.11801
37.11858
37.11753
37.11495
37.1103
37.09632
37.10423
37.11158
37.11736
37.1219
37.12485
37.1256
37.12468
37.12308
37.10662
37.11539
37.12173
37.12749
37.13091
37.1329
37.13238
37.12388
37.13383
37.00266
37.00276
37.00291
37.00302
37.0031
37.00317
37.00326
37.00339
37.00351
37.00361
37.0037
37.00377
37.00382
37.00385
37.00386
37.00384
37.00379
37.00371
37.00362
37.00356
37.0035
37.00342
37.00327
37.00307
37.00325
37.01197
37.01276
37.01351
37.01405
37.01446
37.01482
37.01526
37.01595
37.01654
37.01706
37.0175
37.01785
37.0181
37.01825
37.01828
37.01818
37.01794
37.01754
37.01707
37.01679
37.01646
37.01602
37.01533
37.01451
37.01298
37.02049
37.02167
37.02284
37.02374
37.02451
37.02519
37.026
37.02724
37.02833
37.02926
37.03005
37.03068
37.03114
37.03141
37.03146
37.03128
37.03085
37.03014
37.02927
37.02873
37.02809
37.0273
37.02631
37.02497
37.02811
37.02948
37.03092
37.03223
37.03337
37.03439
37.03558
37.03739
37.03896
37.04032
37.04147
37.04239
37.04306
37.04346
37.04354
37.04328
37.04265
37.04161
37.04035
37.03954
37.03857
37.03739
37.036
37.03449
37.03506
37.03665
37.03822
37.0398
37.04123
37.04254
37.04411
37.04648
37.04855
37.05035
37.05186
37.05308
37.05397
37.0545
37.05462
37.05428
37.05346
37.0521
37.05044
37.04938
37.04815
37.04672
37.04514
37.04321
37.04364
37.04581
37.0478
37.0496
37.05125
37.05326
37.05632
37.05902
37.06135
37.06333
37.06493
37.0661
37.0668
37.06697
37.06655
37.06549
37.06373
37.0616
37.06026
37.05872
37.05692
37.05486
37.05289
37.05206
37.0547
37.05734
37.05973
37.06195
37.06466
37.06882
37.07249
37.07571
37.07844
37.08066
37.08231
37.08331
37.08359
37.08306
37.08165
37.07928
37.07639
37.07457
37.0725
37.07016
37.06758
37.06163
37.06435
37.06722
37.06997
37.07339
37.07867
37.08337
37.08752
37.09109
37.094
37.09619
37.09756
37.09799
37.09739
37.09564
37.09267
37.08901
37.08673
37.08421
37.08149
37.07939
37.06869
37.07225
37.07557
37.07974
37.0862
37.09201
37.0972
37.10168
37.10539
37.10821
37.11002
37.11066
37.11002
37.10796
37.10438
37.09992
37.09708
37.09388
37.08966
37.07556
37.07897
37.08397
37.09166
37.09869
37.10504
37.11058
37.11519
37.11876
37.12111
37.12204
37.12139
37.11902
37.1148
37.10962
37.10642
37.10333
37.07992
37.0867
37.09536
37.10362
37.11132
37.11806
37.12374
37.1282
37.13119
37.13249
37.13189
37.12917
37.12433
37.11933
37.09722
37.10686
37.11627
37.12438
37.13128
37.13682
37.14056
37.1423
37.14181
37.13844
37.13197
37.10873
37.12009
37.12963
37.13805
37.14494
37.14942
37.15162
37.1513
37.14708
37.12356
37.13316
37.14355
37.1518
37.15686
37.15957
37.16193
37.13478
37.14629
37.15482
37.16094
37.16394
37.00259
37.00282
37.00296
37.00305
37.00314
37.00322
37.00329
37.00337
37.00351
37.00364
37.00374
37.00384
37.00392
37.00397
37.00401
37.00402
37.00401
37.00397
37.00389
37.0038
37.00375
37.00369
37.00362
37.00353
37.00343
37.00321
37.00324
37.0119
37.01311
37.01373
37.0142
37.01464
37.01504
37.0154
37.01585
37.01654
37.01717
37.01772
37.01819
37.01858
37.01887
37.01906
37.01912
37.01905
37.01884
37.01846
37.01801
37.01773
37.0174
37.01701
37.01657
37.01608
37.01503
37.01387
37.02051
37.02219
37.0231
37.02399
37.02481
37.02556
37.02624
37.02706
37.02833
37.02945
37.03045
37.0313
37.03201
37.03254
37.03288
37.033
37.03288
37.03248
37.03181
37.03097
37.03043
37.02981
37.02908
37.02824
37.02733
37.02646
37.02395
37.02829
37.02983
37.03128
37.0326
37.03381
37.03491
37.03591
37.03711
37.03896
37.0406
37.04205
37.0433
37.04432
37.0451
37.0456
37.04578
37.0456
37.04504
37.04405
37.04282
37.04203
37.0411
37.04002
37.03876
37.03735
37.03569
37.03514
37.03672
37.0386
37.04027
37.0418
37.04322
37.04453
37.04612
37.04855
37.05072
37.05263
37.05427
37.05563
37.05666
37.05733
37.05758
37.05736
37.05662
37.05532
37.0537
37.05266
37.05146
37.05007
37.0485
37.04668
37.04472
37.04205
37.04447
37.04644
37.04843
37.05034
37.05213
37.0538
37.05585
37.05902
37.06183
37.06432
37.06647
37.06825
37.06962
37.07051
37.07085
37.07058
37.06964
37.06796
37.06586
37.06452
37.063
37.06127
37.05937
37.05741
37.05523
37.05329
37.05567
37.05829
37.06079
37.06317
37.06542
37.06819
37.07249
37.07636
37.07979
37.08278
37.08527
37.0872
37.08847
37.089
37.08868
37.08742
37.08516
37.08232
37.08052
37.07849
37.07621
37.07367
37.07098
37.06835
37.06215
37.06544
37.06854
37.07153
37.07437
37.07788
37.08337
37.08835
37.09281
37.09673
37.10003
37.1026
37.10434
37.1051
37.10477
37.10323
37.1004
37.09681
37.09454
37.09194
37.08905
37.08592
37.08264
37.06619
37.07018
37.07376
37.07752
37.08099
37.08527
37.09201
37.0982
37.1038
37.10877
37.11299
37.11633
37.11863
37.11971
37.11942
37.11762
37.11421
37.10987
37.10712
37.10388
37.10008
37.09626
37.07377
37.07697
37.08137
37.08551
37.09061
37.09869
37.10621
37.11312
37.11928
37.12458
37.12883
37.13182
37.13334
37.13315
37.1311
37.12709
37.12196
37.11872
37.1148
37.1106
37.08356
37.08789
37.0941
37.10362
37.11265
37.12105
37.12861
37.13516
37.14051
37.14437
37.14644
37.14644
37.14413
37.13947
37.13349
37.12964
37.12428
37.08874
37.09632
37.10687
37.11774
37.12787
37.13702
37.14506
37.15172
37.15665
37.15945
37.15972
37.1571
37.15152
37.14542
37.10873
37.12178
37.13374
37.14474
37.15449
37.16271
37.16901
37.1728
37.17342
37.17032
37.16199
37.12488
37.13767
37.15119
37.16254
37.1723
37.18031
37.1853
37.18573
37.18365
37.13828
37.15537
37.16736
37.17803
37.18764
37.19375
37.18899
37.16179
37.17247
37.18422
37.19581
37.20332
37.00267
37.00288
37.00298
37.00307
37.00315
37.00323
37.00331
37.00338
37.00347
37.00361
37.00374
37.00386
37.00396
37.00405
37.00412
37.00416
37.00418
37.00417
37.00414
37.00406
37.00398
37.00392
37.00386
37.00379
37.00371
37.00363
37.00353
37.00336
37.01214
37.01303
37.01374
37.01426
37.0147
37.01512
37.01551
37.01588
37.01634
37.01706
37.01772
37.0183
37.01882
37.01925
37.01959
37.01981
37.01992
37.01988
37.01968
37.01932
37.01887
37.01858
37.01826
37.0179
37.01749
37.01702
37.01637
37.0154
37.0205
37.02193
37.02315
37.02409
37.02492
37.0257
37.02643
37.02711
37.02795
37.02926
37.03045
37.03151
37.03244
37.03322
37.03384
37.03425
37.03443
37.03437
37.03401
37.03336
37.03253
37.03201
37.0314
37.03071
37.02994
37.02906
37.02795
37.02626
37.02875
37.02994
37.03139
37.03273
37.03396
37.03512
37.03619
37.03719
37.03841
37.04032
37.04205
37.0436
37.04495
37.04609
37.04699
37.0476
37.04787
37.04778
37.04727
37.04632
37.04511
37.04434
37.04344
37.04242
37.04126
37.03996
37.0385
37.0369
37.03613
37.03707
37.03875
37.0404
37.042
37.0435
37.0449
37.04622
37.04783
37.05035
37.05263
37.05467
37.05646
37.05798
37.05917
37.05998
37.06036
37.06024
37.05959
37.05834
37.05675
37.05572
37.05454
37.0532
37.0517
37.05006
37.04836
37.04673
37.04425
37.04652
37.0486
37.05059
37.05249
37.05429
37.05598
37.05808
37.06135
37.06432
37.06699
37.06934
37.07133
37.0729
37.07398
37.0745
37.07437
37.07354
37.07193
37.06986
37.06854
37.06702
37.06531
37.06342
37.06137
37.05915
37.05721
37.05258
37.0555
37.05844
37.06114
37.06367
37.06608
37.06837
37.07122
37.07571
37.07979
37.08349
37.08677
37.08956
37.09179
37.09335
37.09413
37.09401
37.0929
37.09074
37.08793
37.08613
37.08409
37.08179
37.07921
37.07626
37.07285
37.0625
37.06574
37.06903
37.07218
37.07523
37.07814
37.08177
37.08752
37.09281
37.09764
37.10196
37.10568
37.10867
37.1108
37.11191
37.11186
37.11052
37.10779
37.10423
37.10194
37.09933
37.0964
37.09321
37.08963
37.08631
37.07047
37.07456
37.07834
37.08206
37.08562
37.09008
37.09719
37.1038
37.1099
37.1154
37.12019
37.1241
37.12693
37.12848
37.12856
37.12702
37.12374
37.11939
37.1166
37.11338
37.10978
37.10586
37.10142
37.07837
37.08244
37.08687
37.09111
37.09644
37.10504
37.11311
37.12065
37.12753
37.13358
37.13859
37.1423
37.14443
37.14474
37.14304
37.1392
37.13403
37.13069
37.12688
37.12267
37.11814
37.08453
37.08976
37.09477
37.10109
37.11132
37.12105
37.13024
37.13873
37.1463
37.15265
37.15745
37.16034
37.161
37.15921
37.15484
37.1488
37.14478
37.13976
37.13541
37.09295
37.09703
37.10423
37.11627
37.12787
37.13897
37.14935
37.15872
37.16672
37.17291
37.17677
37.17788
37.17611
37.17123
37.16432
37.16108
37.10662
37.12008
37.13373
37.14708
37.15967
37.17117
37.18119
37.18916
37.19437
37.19594
37.1943
37.18804
37.12355
37.13761
37.15411
37.16877
37.18238
37.19454
37.20458
37.21177
37.21344
37.21119
37.13807
37.15893
37.17428
37.18922
37.20283
37.21433
37.22381
37.22571
37.21642
37.1648
37.17935
37.1958
37.21095
37.22371
37.23767
37.24159
37.1828
37.20096
37.21737
37.23013
37.25208
37.00272
37.00289
37.00303
37.00313
37.00322
37.0033
37.00338
37.00346
37.00355
37.0037
37.00384
37.00396
37.00408
37.00417
37.00425
37.0043
37.00433
37.00432
37.00429
37.00422
37.00413
37.00407
37.00401
37.00394
37.00386
37.00376
37.00364
37.00346
37.00334
37.01261
37.01342
37.01408
37.01461
37.01507
37.01549
37.01589
37.01627
37.01674
37.0175
37.01819
37.01882
37.01938
37.01985
37.02024
37.0205
37.02064
37.02063
37.02045
37.0201
37.01965
37.01936
37.01904
37.01867
37.01825
37.01776
37.01714
37.01632
37.01546
37.02149
37.02281
37.02386
37.02478
37.02562
37.0264
37.02713
37.02782
37.02868
37.03005
37.0313
37.03244
37.03345
37.03432
37.03501
37.0355
37.03575
37.03573
37.03542
37.03478
37.03396
37.03343
37.03283
37.03214
37.03137
37.0305
37.02947
37.02824
37.02641
37.02949
37.03114
37.03252
37.0338
37.035
37.03614
37.03721
37.03823
37.03948
37.04147
37.0433
37.04495
37.04643
37.04769
37.04871
37.04942
37.0498
37.04978
37.04932
37.0484
37.0472
37.04643
37.04554
37.04453
37.04341
37.04215
37.04078
37.03922
37.03723
37.03682
37.03853
37.04018
37.04179
37.04335
37.04484
37.04625
37.04758
37.04924
37.05186
37.05427
37.05646
37.05841
37.06009
37.06144
37.06241
37.06292
37.0629
37.06232
37.06111
37.05952
37.0585
37.05733
37.056
37.05453
37.05292
37.05122
37.04944
37.0483
37.04471
37.04629
37.04827
37.0503
37.05229
37.05421
37.05603
37.05776
37.05991
37.06333
37.06647
37.06934
37.0719
37.07411
37.0759
37.07718
37.07787
37.07788
37.07714
37.07558
37.07352
37.07219
37.07067
37.06895
37.06705
37.06499
37.06287
37.06096
37.05497
37.05784
37.06066
37.06338
37.06596
37.06844
37.0708
37.07374
37.07844
37.08278
37.08677
37.09036
37.09348
37.09603
37.09788
37.0989
37.09898
37.09801
37.0959
37.09308
37.09127
37.08919
37.08683
37.0842
37.0813
37.07825
37.07553
37.06062
37.06478
37.06837
37.07181
37.07509
37.07823
37.08125
37.08503
37.09109
37.09673
37.10196
37.10671
37.11088
37.11432
37.11686
37.11832
37.11853
37.11736
37.11471
37.11112
37.10879
37.10611
37.10308
37.09969
37.09596
37.0917
37.07044
37.0739
37.07795
37.08194
37.08579
37.08949
37.09415
37.10168
37.10877
37.1154
37.12149
37.1269
37.13141
37.1348
37.13683
37.13727
37.13596
37.13276
37.12836
37.1255
37.12218
37.11841
37.11425
37.11005
37.1064
37.07694
37.08195
37.08679
37.09142
37.09584
37.10143
37.11057
37.11928
37.12753
37.1352
37.14208
37.14791
37.15237
37.15513
37.15593
37.15452
37.15077
37.14552
37.1421
37.13809
37.13341
37.12785
37.12231
37.0852
37.08989
37.09548
37.10058
37.10715
37.11806
37.12861
37.13873
37.14827
37.15695
37.16441
37.17021
37.17394
37.17523
37.1738
37.1695
37.1634
37.15947
37.15492
37.14922
37.092
37.09887
37.10402
37.11158
37.12437
37.13702
37.14935
37.16112
37.17201
37.1815
37.18901
37.19398
37.19592
37.19453
37.18969
37.18282
37.17901
37.1755
37.10637
37.11539
37.12963
37.14474
37.15967
37.17411
37.18773
37.19978
37.20945
37.21601
37.21885
37.21746
37.21217
37.20635
37.13316
37.1512
37.16876
37.18589
37.2026
37.21753
37.22952
37.23779
37.24206
37.23985
37.23338
37.13478
37.1554
37.17427
37.19308
37.21224
37.22928
37.24281
37.25191
37.25805
37.25362
37.16185
37.17934
37.19993
37.2225
37.24204
37.25724
37.26581
37.27524
37.1828
37.2055
37.23365
37.25615
37.27392
37.27703
37.24497
37.27175
37.29504
37.00271
37.00278
37.00294
37.00307
37.00318
37.00327
37.00336
37.00344
37.00351
37.00361
37.00377
37.00392
37.00405
37.00417
37.00427
37.00436
37.00442
37.00445
37.00446
37.00443
37.00436
37.00426
37.00421
37.00414
37.00407
37.00398
37.00389
37.00376
37.0036
37.00342
37.0121
37.01296
37.01372
37.01433
37.01486
37.01533
37.01576
37.01617
37.01656
37.01705
37.01785
37.01858
37.01925
37.01985
37.02038
37.0208
37.02111
37.02128
37.02129
37.02113
37.02079
37.02033
37.02004
37.0197
37.01933
37.0189
37.01841
37.01781
37.01706
37.01607
37.02014
37.02197
37.0233
37.02434
37.02527
37.02611
37.0269
37.02765
37.02836
37.02925
37.03068
37.03201
37.03322
37.03432
37.03527
37.03604
37.0366
37.03691
37.03694
37.03665
37.03603
37.0352
37.03466
37.03405
37.03336
37.03258
37.0317
37.03068
37.02942
37.02746
37.03005
37.03176
37.03321
37.03451
37.03573
37.03688
37.03798
37.03901
37.04031
37.04239
37.04432
37.04609
37.04769
37.04908
37.05021
37.05104
37.0515
37.05155
37.05114
37.05023
37.04902
37.04824
37.04734
37.04633
37.04519
37.04393
37.0425
37.04082
37.03873
37.03716
37.03923
37.04105
37.04272
37.04431
37.04582
37.04725
37.04862
37.05034
37.05308
37.05563
37.05798
37.06009
37.06194
37.06345
37.06456
37.06519
37.06527
37.06474
37.06355
37.06195
37.06092
37.05973
37.05839
37.0569
37.05526
37.05344
37.05136
37.04931
37.04528
37.04732
37.04942
37.0515
37.05352
37.05547
37.05733
37.05911
37.06134
37.06492
37.06825
37.07133
37.07411
37.07655
37.07855
37.08003
37.08089
37.08102
37.08035
37.07881
37.07673
37.07539
37.07384
37.0721
37.07016
37.06808
37.0659
37.06378
37.06155
37.05413
37.05665
37.05947
37.06228
37.06502
37.06767
37.07022
37.07266
37.07573
37.08066
37.08527
37.08956
37.09348
37.09693
37.0998
37.10194
37.10321
37.10347
37.1026
37.10052
37.09767
37.09581
37.09368
37.09126
37.08857
37.08564
37.08259
37.07967
37.0625
37.06654
37.07032
37.07389
37.07728
37.08054
37.08367
37.08761
37.094
37.10003
37.10567
37.11088
37.11551
37.1194
37.12235
37.12415
37.12462
37.12359
37.12097
37.11732
37.11494
37.11219
37.10905
37.10549
37.10144
37.09683
37.0921
37.0716
37.07627
37.08058
37.08469
37.08867
37.09253
37.09741
37.10539
37.11299
37.12019
37.1269
37.13294
37.13807
37.14203
37.14452
37.14531
37.14419
37.14102
37.13654
37.1336
37.13021
37.12636
37.12203
37.11709
37.11046
37.08026
37.08539
37.09019
37.09493
37.09956
37.10546
37.11519
37.12458
37.13358
37.14208
37.14983
37.1565
37.16173
37.16513
37.16638
37.16523
37.16151
37.15611
37.15257
37.14851
37.14394
37.13885
37.13253
37.08924
37.09395
37.0995
37.10499
37.11203
37.12374
37.13516
37.1463
37.15695
37.1668
37.17541
37.18225
37.18684
37.18874
37.18762
37.18329
37.17679
37.17249
37.16771
37.16319
37.16018
37.09508
37.10209
37.10895
37.11735
37.13128
37.14506
37.15871
37.17201
37.18448
37.19553
37.20446
37.21058
37.21332
37.21228
37.20721
37.19923
37.19361
37.18665
37.11159
37.12172
37.13805
37.15448
37.17117
37.18773
37.20352
37.21769
37.22929
37.23737
37.24118
37.24022
37.2343
37.22407
37.21738
37.12388
37.14355
37.16254
37.18237
37.2026
37.22207
37.23975
37.25435
37.26463
37.26975
37.26855
37.26359
37.14629
37.16737
37.18922
37.21224
37.23429
37.25448
37.27125
37.28312
37.2895
37.28725
37.17247
37.1958
37.2225
37.24733
37.2704
37.28961
37.30342
37.31244
37.30749
37.20097
37.23365
37.2615
37.28777
37.30965
37.32614
37.337
37.24498
37.27911
37.30801
37.33171
37.35242
37.00273
37.0028
37.00296
37.0031
37.00321
37.0033
37.00339
37.00347
37.00355
37.00366
37.00382
37.00397
37.00412
37.00425
37.00436
37.00445
37.00452
37.00456
37.00457
37.00454
37.00447
37.00438
37.00432
37.00425
37.00417
37.00409
37.00399
37.00386
37.00369
37.00351
37.01223
37.01303
37.01383
37.01447
37.01501
37.01549
37.01594
37.01636
37.01676
37.01727
37.0181
37.01887
37.01959
37.02024
37.0208
37.02127
37.02162
37.02182
37.02185
37.0217
37.02135
37.02088
37.02058
37.02024
37.01986
37.01942
37.01891
37.0183
37.0175
37.01649
37.02057
37.02219
37.02353
37.0246
37.02554
37.0264
37.02721
37.02798
37.02872
37.02964
37.03114
37.03254
37.03384
37.03501
37.03604
37.03689
37.03752
37.03789
37.03795
37.03768
37.03706
37.03621
37.03566
37.03503
37.03433
37.03353
37.03263
37.03159
37.0303
37.02846
37.02767
37.03031
37.0321
37.03358
37.03491
37.03616
37.03734
37.03846
37.03954
37.04088
37.04306
37.0451
37.04699
37.04871
37.05021
37.05146
37.05239
37.05293
37.05304
37.05265
37.05174
37.05051
37.04971
37.04879
37.04775
37.04659
37.0453
37.04384
37.04212
37.0394
37.03743
37.03965
37.04153
37.04325
37.04487
37.04642
37.0479
37.04932
37.0511
37.05397
37.05666
37.05917
37.06144
37.06345
37.06512
37.06636
37.0671
37.06726
37.06677
37.06557
37.06394
37.06288
37.06166
37.06029
37.05876
37.05708
37.05523
37.05304
37.05069
37.04567
37.04792
37.05007
37.05218
37.05425
37.05625
37.05817
37.06002
37.06234
37.0661
37.06962
37.0729
37.0759
37.07855
37.08077
37.08243
37.08344
37.08368
37.08305
37.08151
37.07938
37.078
37.07641
37.07461
37.07263
37.0705
37.06832
37.06623
37.06342
37.05485
37.05756
37.06036
37.06322
37.06603
37.06876
37.07139
37.07393
37.07712
37.08231
37.0872
37.09179
37.09602
37.0998
37.10297
37.10539
37.10688
37.10729
37.1065
37.10441
37.10149
37.09957
37.09737
37.09487
37.09209
37.08907
37.086
37.08311
37.06361
37.06763
37.07151
37.0752
37.07871
37.08208
37.08534
37.08946
37.09619
37.1026
37.10867
37.11432
37.1194
37.12373
37.12707
37.12919
37.12987
37.12896
37.12632
37.12257
37.12011
37.11726
37.11401
37.11032
37.10611
37.10137
37.09711
37.07284
37.07778
37.08226
37.08651
37.09064
37.09466
37.09978
37.10821
37.11632
37.1241
37.13141
37.13807
37.14381
37.14831
37.15125
37.15235
37.15139
37.14821
37.14359
37.14054
37.13703
37.13308
37.12868
37.12377
37.11704
37.08198
37.08748
37.09248
37.09739
37.10222
37.10843
37.11876
37.12883
37.13859
37.14791
37.1565
37.164
37.16999
37.17401
37.17571
37.17478
37.17105
37.16548
37.1618
37.15758
37.1529
37.1476
37.14084
37.0917
37.09669
37.10248
37.10826
37.11571
37.12819
37.14051
37.15265
37.1644
37.1754
37.18515
37.19305
37.1985
37.20101
37.2002
37.1959
37.18921
37.18474
37.17969
37.17499
37.17161
37.09796
37.10593
37.11291
37.12189
37.13682
37.15172
37.16672
37.18149
37.19553
37.20815
37.21854
37.22587
37.22942
37.22882
37.224
37.21605
37.2105
37.2026
37.11628
37.12748
37.14494
37.16271
37.18118
37.19978
37.21769
37.23402
37.24768
37.25743
37.26228
37.26194
37.25735
37.24793
37.24515
37.13383
37.1518
37.17229
37.19453
37.21753
37.23975
37.2603
37.27775
37.29029
37.29651
37.29594
37.29644
37.15482
37.17803
37.20283
37.22927
37.25448
37.27807
37.29835
37.31302
37.32042
37.31818
37.32107
37.18422
37.21095
37.24204
37.2704
37.29749
37.32105
37.33848
37.34897
37.34369
37.21737
37.25615
37.28777
37.31889
37.34625
37.36729
37.3798
37.27175
37.30801
37.34309
37.37644
37.40046
37.00282
37.00278
37.00296
37.0031
37.00322
37.00331
37.0034
37.00349
37.00357
37.00368
37.00385
37.00401
37.00416
37.0043
37.00442
37.00452
37.0046
37.00464
37.00465
37.00462
37.00455
37.00446
37.00439
37.00433
37.00425
37.00416
37.00405
37.00392
37.00374
37.0035
37.012
37.01295
37.01383
37.01449
37.01505
37.01554
37.016
37.01643
37.01685
37.01738
37.01825
37.01906
37.01981
37.0205
37.02111
37.02162
37.02199
37.02222
37.02227
37.02212
37.02177
37.02129
37.02098
37.02062
37.02022
37.01977
37.01925
37.0186
37.01775
37.01644
37.02221
37.02353
37.02463
37.02559
37.02648
37.02732
37.02812
37.02888
37.02984
37.03141
37.03288
37.03425
37.0355
37.0366
37.03752
37.03821
37.03862
37.03872
37.03846
37.03781
37.03694
37.03637
37.03572
37.03498
37.03415