/*--------------------------------*- C++ -*----------------------------------*\
| =========                 |                                                 |
| \\      /  F ield         | OpenFOAM: The Open Source CFD Toolbox           |
|  \\    /   O peration     | Version:  5.x                                   |
|   \\  /    A nd           | Web:      www.OpenFOAM.org                      |
|    \\/     M anipulation  |                                                 |
\*---------------------------------------------------------------------------*/
FoamFile
{
    version     2.0;
    format      ascii;
    class       volScalarField;
    location    "20/muscle";
    object      T;
}
// * * * * * * * * * * * * * * * * * * * * * * * * * * * * * * * * * * * * * //

dimensions      [0 0 0 1 0 0 0];

internalField   nonuniform List<scalar> 
209768
(
37.00161
37.00154
37.00153
37.00154
37.00622
37.00655
37.00659
37.00645
37.01184
37.01188
37.01177
37.01671
37.01672
37.01669
37.02053
37.02067
37.00144
37.00145
37.00146
37.00148
37.00148
37.00148
37.00147
37.0014
37.00161
37.00665
37.00691
37.00698
37.00706
37.00705
37.00709
37.00697
37.00659
37.01188
37.01214
37.01227
37.01229
37.01228
37.01231
37.01221
37.01201
37.01692
37.0169
37.01713
37.0172
37.01719
37.01712
37.01706
37.01694
37.02099
37.02128
37.02167
37.02178
37.02182
37.02174
37.02157
37.02132
37.02504
37.02582
37.0259
37.02604
37.02613
37.02599
37.0258
37.0257
37.02989
37.02999
37.02995
37.02999
37.02994
37.02964
37.02987
37.03404
37.03333
37.03359
37.03363
37.03369
37.03358
37.0348
37.03764
37.03713
37.03711
37.0372
37.0369
37.03716
37.04158
37.04154
37.04143
37.04194
37.04137
37.0015
37.00156
37.00153
37.00153
37.00154
37.00153
37.00154
37.00153
37.00153
37.0015
37.00174
37.00677
37.00723
37.00732
37.00735
37.00736
37.00735
37.00737
37.00734
37.00725
37.00706
37.00634
37.0121
37.01241
37.01266
37.01276
37.01279
37.01278
37.01279
37.01272
37.01255
37.0123
37.01198
37.01708
37.01732
37.01759
37.01778
37.01787
37.01788
37.01784
37.0177
37.01748
37.01727
37.01723
37.02138
37.02197
37.0223
37.02251
37.02264
37.02268
37.02258
37.02243
37.02219
37.02206
37.02099
37.02589
37.02645
37.02679
37.02691
37.02704
37.02709
37.02698
37.02685
37.02673
37.02621
37.02548
37.03013
37.03083
37.03096
37.03103
37.03109
37.03112
37.03107
37.03097
37.03088
37.03046
37.03344
37.0354
37.03498
37.03489
37.03494
37.03495
37.03494
37.03487
37.03504
37.03482
37.0372
37.03835
37.03856
37.03856
37.03864
37.03863
37.0386
37.03853
37.03856
37.03808
37.04256
37.04328
37.0432
37.04315
37.04312
37.04324
37.0431
37.04273
37.04216
37.04879
37.04943
37.05031
37.05038
37.05004
37.049
37.04781
37.05388
37.05485
37.0548
37.05425
37.05344
37.00153
37.00151
37.00152
37.00157
37.00158
37.00158
37.00158
37.00158
37.00158
37.00158
37.00157
37.00155
37.0015
37.00135
37.00613
37.00692
37.0072
37.00745
37.00755
37.00759
37.0076
37.0076
37.0076
37.00757
37.0075
37.00735
37.00706
37.00658
37.01205
37.01252
37.01286
37.01306
37.01317
37.01321
37.01322
37.0132
37.01313
37.01298
37.01272
37.01231
37.01193
37.01706
37.01754
37.01795
37.01821
37.01837
37.01846
37.01847
37.01843
37.0183
37.01809
37.01779
37.01728
37.01703
37.02149
37.02227
37.02277
37.02306
37.02325
37.02336
37.02339
37.02331
37.02317
37.02294
37.0226
37.02188
37.02112
37.02572
37.0267
37.02731
37.02763
37.0278
37.02791
37.02794
37.02786
37.02772
37.02751
37.02706
37.0262
37.02546
37.02966
37.03079
37.03159
37.0319
37.03205
37.03215
37.03217
37.03211
37.03198
37.03177
37.03125
37.03041
37.02945
37.03318
37.03447
37.03561
37.0359
37.03604
37.03613
37.03615
37.0361
37.03597
37.03578
37.03518
37.03372
37.03687
37.038
37.03917
37.03961
37.03979
37.0399
37.03991
37.03986
37.0397
37.03944
37.03875
37.0372
37.04127
37.04224
37.04339
37.0441
37.04438
37.0445
37.04451
37.04446
37.04425
37.04376
37.04287
37.04192
37.04778
37.04911
37.05019
37.05085
37.05129
37.05136
37.05112
37.05054
37.04963
37.04843
37.05436
37.05505
37.05568
37.05625
37.05632
37.05604
37.05529
37.05435
37.05354
37.05839
37.05975
37.05983
37.05994
37.05961
37.05907
37.00148
37.00158
37.00157
37.0016
37.00161
37.00162
37.00162
37.00162
37.00162
37.00162
37.00161
37.00158
37.00157
37.00154
37.00152
37.00728
37.0074
37.00749
37.00763
37.00773
37.00778
37.0078
37.00781
37.0078
37.00776
37.00769
37.00757
37.00743
37.00734
37.00653
37.01214
37.01266
37.01295
37.01323
37.01342
37.01352
37.01357
37.01358
37.01356
37.01348
37.01334
37.01311
37.0128
37.01251
37.01197
37.01703
37.01756
37.01807
37.01847
37.01873
37.01889
37.01897
37.01898
37.01894
37.01882
37.01862
37.0183
37.01782
37.0173
37.01707
37.02148
37.02219
37.02289
37.02341
37.02372
37.0239
37.02401
37.02403
37.02396
37.02382
37.02358
37.02319
37.02255
37.02184
37.02107
37.02568
37.02655
37.02743
37.02804
37.02839
37.02859
37.0287
37.02873
37.02866
37.0285
37.02824
37.02777
37.02701
37.0261
37.02545
37.02958
37.03071
37.03165
37.03236
37.03275
37.03297
37.03309
37.03311
37.03304
37.03287
37.03258
37.03205
37.03122
37.03012
37.02952
37.03305
37.03448
37.03551
37.03637
37.03682
37.03706
37.03719
37.03721
37.03714
37.03695
37.03663
37.03599
37.03499
37.03398
37.03674
37.03786
37.0391
37.04006
37.0406
37.04089
37.04103
37.04106
37.04098
37.04076
37.04037
37.03964
37.03849
37.03717
37.0408
37.04231
37.04344
37.04445
37.04514
37.04552
37.04571
37.04574
37.04564
37.04536
37.04484
37.04399
37.04292
37.04152
37.04843
37.04946
37.05068
37.0516
37.0522
37.05255
37.05261
37.05241
37.05194
37.05117
37.05011
37.04897
37.04857
37.05433
37.05577
37.05675
37.05746
37.05787
37.05794
37.05772
37.05712
37.05627
37.05511
37.05397
37.05949
37.05961
37.06075
37.06158
37.06191
37.06199
37.06177
37.06122
37.06031
37.05929
37.06395
37.06458
37.06484
37.06488
37.06479
37.06434
37.06331
37.00149
37.00155
37.0016
37.00161
37.00163
37.00164
37.00165
37.00166
37.00166
37.00166
37.00165
37.00164
37.00162
37.0016
37.00158
37.0015
37.00175
37.00688
37.00738
37.00759
37.0077
37.00781
37.0079
37.00795
37.00798
37.00798
37.00797
37.00793
37.00786
37.00775
37.00764
37.00752
37.00712
37.00643
37.01212
37.01265
37.01305
37.01332
37.01356
37.01373
37.01384
37.01389
37.0139
37.01387
37.01379
37.01366
37.01345
37.01319
37.01288
37.01237
37.01195
37.017
37.01754
37.0181
37.01857
37.01894
37.01919
37.01934
37.01942
37.01944
37.01939
37.01927
37.01908
37.01877
37.01834
37.01784
37.01725
37.01704
37.02136
37.02216
37.02286
37.0235
37.02398
37.0243
37.02449
37.02459
37.02461
37.02455
37.02441
37.02416
37.02377
37.02319
37.02251
37.0218
37.02072
37.02567
37.02652
37.02737
37.02814
37.02871
37.02908
37.0293
37.02942
37.02944
37.02937
37.02921
37.02892
37.02845
37.02777
37.02694
37.02609
37.0251
37.02981
37.03068
37.03163
37.03247
37.03312
37.03355
37.0338
37.03393
37.03396
37.03388
37.03369
37.03336
37.03283
37.03207
37.03115
37.03031
37.03319
37.03443
37.03553
37.03647
37.03722
37.03771
37.038
37.03815
37.03818
37.03809
37.03787
37.03749
37.03688
37.03601
37.03501
37.03378
37.03686
37.03784
37.03909
37.04016
37.04101
37.04157
37.04191
37.04208
37.04212
37.04202
37.04177
37.04133
37.04062
37.03965
37.03848
37.03725
37.04231
37.04354
37.04464
37.04557
37.04624
37.04665
37.04686
37.0469
37.04678
37.04647
37.04594
37.04513
37.04411
37.04294
37.04167
37.04944
37.05002
37.05109
37.05217
37.053
37.05357
37.05388
37.05394
37.05376
37.05332
37.05262
37.05165
37.05055
37.04962
37.04908
37.05527
37.05642
37.05757
37.0585
37.05917
37.05953
37.0596
37.05939
37.05887
37.05806
37.05703
37.05577
37.05488
37.06021
37.0611
37.06197
37.06292
37.06364
37.064
37.06407
37.06386
37.06333
37.06246
37.06158
37.06081
37.06464
37.066
37.06666
37.06724
37.06754
37.06759
37.06745
37.06694
37.06611
37.06556
37.07069
37.07116
37.07078
37.07079
37.07101
37.07104
37.06928
37.00158
37.00151
37.00157
37.00161
37.00164
37.00166
37.00167
37.00168
37.00169
37.00169
37.00169
37.00168
37.00167
37.00165
37.00163
37.0016
37.00154
37.00149
37.00663
37.00719
37.0075
37.00772
37.00785
37.00797
37.00805
37.00811
37.00813
37.00814
37.00812
37.00808
37.00801
37.00791
37.00779
37.00763
37.00735
37.007
37.01197
37.01249
37.01298
37.01335
37.01363
37.01386
37.01402
37.01412
37.01417
37.01418
37.01415
37.01407
37.01394
37.01375
37.0135
37.01318
37.01274
37.01224
37.01689
37.01749
37.01807
37.0186
37.01903
37.01937
37.0196
37.01975
37.01983
37.01984
37.0198
37.01969
37.0195
37.01921
37.01882
37.01835
37.01779
37.01718
37.02105
37.02216
37.02287
37.02351
37.02408
37.02453
37.02483
37.02502
37.02512
37.02514
37.02508
37.02494
37.02469
37.02432
37.02381
37.0232
37.02252
37.02169
37.02554
37.02655
37.02738
37.02815
37.02883
37.02936
37.02973
37.02995
37.03008
37.0301
37.03003
37.02985
37.02956
37.02912
37.0285
37.02777
37.02698
37.02589
37.02981
37.03053
37.0316
37.03249
37.03326
37.03387
37.0343
37.03457
37.03471
37.03474
37.03465
37.03445
37.03411
37.03359
37.03289
37.03206
37.03111
37.02998
37.03285
37.03424
37.03547
37.0365
37.03738
37.03807
37.03856
37.03887
37.03903
37.03907
37.03897
37.03874
37.03834
37.03775
37.03696
37.03601
37.03489
37.03356
37.03775
37.03908
37.04022
37.04119
37.04197
37.04253
37.04288
37.04307
37.04311
37.043
37.04273
37.04228
37.04161
37.04072
37.03967
37.03847
37.03708
37.04205
37.04355
37.04476
37.04581
37.04668
37.04733
37.04775
37.04797
37.04802
37.04789
37.04757
37.04704
37.04627
37.04531
37.04418
37.04283
37.04152
37.04802
37.05023
37.05147
37.05258
37.05359
37.05438
37.05492
37.05522
37.05528
37.0551
37.05468
37.05402
37.05311
37.05203
37.05088
37.04928
37.05523
37.05687
37.05818
37.0593
37.0602
37.06083
37.06118
37.06125
37.06104
37.06055
37.05978
37.05877
37.05754
37.0561
37.05449
37.05875
37.06127
37.06285
37.06402
37.06497
37.06565
37.06603
37.0661
37.06588
37.06535
37.06452
37.06349
37.06216
37.06006
37.06442
37.06631
37.06799
37.06897
37.06965
37.07002
37.07009
37.06987
37.06934
37.06848
37.0673
37.06538
37.06854
37.07074
37.07231
37.07314
37.07352
37.0736
37.07339
37.07277
37.07141
37.06982
37.07443
37.0753
37.0761
37.0762
37.07583
37.07437
37.07366
37.00158
37.00149
37.00154
37.0016
37.00164
37.00166
37.00169
37.0017
37.00171
37.00172
37.00172
37.00172
37.00171
37.0017
37.00168
37.00165
37.00162
37.00157
37.00152
37.00145
37.00653
37.00705
37.00739
37.00765
37.00785
37.008
37.00811
37.00819
37.00825
37.00828
37.00829
37.00827
37.00823
37.00816
37.00806
37.00793
37.00776
37.00753
37.00723
37.00685
37.01172
37.01228
37.01286
37.0133
37.01364
37.01391
37.01413
37.01428
37.01438
37.01444
37.01445
37.01441
37.01434
37.01421
37.01403
37.01379
37.01348
37.01309
37.01259
37.01199
37.01654
37.01723
37.01801
37.01857
37.01905
37.01945
37.01976
37.01998
37.02013
37.02021
37.02022
37.02018
37.02007
37.01988
37.01961
37.01926
37.01882
37.0183
37.01767
37.0168
37.02188
37.02282
37.02351
37.02411
37.02463
37.02503
37.02533
37.02552
37.02562
37.02564
37.02558
37.02543
37.02519
37.02485
37.02438
37.02382
37.02318
37.0224
37.02132
37.02617
37.02727
37.02813
37.02886
37.02948
37.02998
37.03033
37.03056
37.03068
37.03071
37.03064
37.03046
37.03017
37.02975
37.02919
37.02851
37.02772
37.02674
37.02556
37.0304
37.03142
37.03244
37.0333
37.03402
37.0346
37.03501
37.03528
37.03543
37.03545
37.03537
37.03516
37.03482
37.03433
37.03368
37.03288
37.03195
37.03087
37.02956
37.03384
37.03529
37.03644
37.03742
37.03825
37.0389
37.03938
37.03969
37.03986
37.03989
37.03979
37.03956
37.03916
37.0386
37.03785
37.03695
37.03589
37.03465
37.03323
37.03742
37.03891
37.04018
37.04126
37.04218
37.04291
37.04345
37.04381
37.044
37.04404
37.04393
37.04365
37.04321
37.04257
37.04174
37.04074
37.03957
37.0382
37.03703
37.04187
37.04326
37.04473
37.04593
37.04694
37.04777
37.04839
37.04881
37.04904
37.04908
37.04895
37.04863
37.04811
37.04738
37.04646
37.04536
37.04403
37.04253
37.04726
37.04937
37.05142
37.05282
37.05398
37.05495
37.05571
37.05624
37.05653
37.05658
37.05641
37.05601
37.05536
37.05449
37.05342
37.05216
37.0505
37.04819
37.05444
37.05672
37.05844
37.05982
37.06094
37.06182
37.06243
37.06278
37.06284
37.06264
37.06216
37.06141
37.06041
37.05916
37.05763
37.05566
37.05337
37.05902
37.06071
37.06295
37.06463
37.06591
37.06688
37.06757
37.06795
37.06803
37.0678
37.06726
37.06643
37.06531
37.06385
37.06187
37.05961
37.06375
37.06624
37.06835
37.06998
37.07109
37.07184
37.07226
37.07235
37.07209
37.07151
37.07057
37.06924
37.06736
37.06502
37.06865
37.07096
37.07302
37.07446
37.07537
37.0759
37.07601
37.07569
37.07496
37.07379
37.0721
37.06989
37.07308
37.07545
37.07683
37.07783
37.07866
37.0788
37.07834
37.07734
37.076
37.07441
37.07846
37.07921
37.08055
37.08067
37.07984
37.07923
37.00171
37.00147
37.00153
37.00158
37.00163
37.00166
37.00169
37.00171
37.00173
37.00174
37.00175
37.00175
37.00174
37.00174
37.00172
37.0017
37.00168
37.00165
37.00161
37.00156
37.0015
37.00148
37.00638
37.00695
37.00732
37.00759
37.00782
37.008
37.00814
37.00825
37.00833
37.00839
37.00842
37.00842
37.0084
37.00836
37.00829
37.0082
37.00807
37.00791
37.00771
37.00746
37.00716
37.00666
37.01178
37.01235
37.01276
37.01322
37.01361
37.01392
37.01418
37.01438
37.01453
37.01463
37.01468
37.01469
37.01466
37.01458
37.01446
37.01429
37.01406
37.01377
37.01342
37.013
37.01251
37.01181
37.01681
37.01689
37.01785
37.0185
37.01902
37.01947
37.01983
37.02013
37.02034
37.02049
37.02056
37.02058
37.02053
37.02042
37.02024
37.01999
37.01966
37.01925
37.01877
37.01819
37.01748
37.01675
37.02146
37.02259
37.02341
37.02409
37.02466
37.02513
37.02551
37.02579
37.02598
37.02608
37.0261
37.02604
37.0259
37.02567
37.02534
37.02491
37.02438
37.02377
37.02302
37.02211
37.02089
37.02577
37.02695
37.02798
37.02882
37.02952
37.0301
37.03056
37.0309
37.03113
37.03125
37.03128
37.0312
37.03103
37.03075
37.03034
37.02982
37.02918
37.02842
37.0275
37.02633
37.02537
37.02971
37.03114
37.03227
37.03324
37.03406
37.03474
37.03528
37.03569
37.03596
37.0361
37.03613
37.03604
37.03584
37.0355
37.03503
37.03441
37.03366
37.03277
37.03173
37.03042
37.02942
37.0336
37.03505
37.03626
37.03735
37.03829
37.03907
37.0397
37.04016
37.04047
37.04064
37.04067
37.04057
37.04033
37.03995
37.03941
37.0387
37.03784
37.03682
37.03566
37.0345
37.03829
37.03868
37.03996
37.04119
37.04224
37.04311
37.04381
37.04434
37.04469
37.04488
37.04492
37.0448
37.04453
37.0441
37.04349
37.0427
37.04174
37.0406
37.03931
37.03808
37.04291
37.04307
37.04444
37.04585
37.04703
37.04802
37.04882
37.04942
37.04983
37.05005
37.05009
37.04996
37.04965
37.04914
37.04844
37.04755
37.04647
37.04517
37.04371
37.04287
37.04883
37.05088
37.05269
37.05412
37.0553
37.05626
37.05699
37.0575
37.05778
37.05784
37.05767
37.05728
37.05665
37.0558
37.05474
37.05345
37.05184
37.04986
37.04819
37.05431
37.05616
37.05827
37.05998
37.06138
37.0625
37.06337
37.06397
37.0643
37.06437
37.06417
37.0637
37.06297
37.06197
37.06072
37.05917
37.05728
37.05491
37.06086
37.06271
37.06474
37.0664
37.0677
37.06869
37.06938
37.06977
37.06984
37.06961
37.06907
37.06824
37.06709
37.06562
37.06375
37.0617
37.06072
37.06407
37.06612
37.06846
37.0704
37.07197
37.07312
37.0739
37.07434
37.07443
37.07416
37.07355
37.07259
37.07124
37.06948
37.06734
37.06516
37.07049
37.07142
37.07352
37.07536
37.0767
37.07762
37.07816
37.07827
37.07794
37.07721
37.07608
37.07451
37.07246
37.07078
37.07464
37.07621
37.07812
37.07947
37.0805
37.08118
37.08133
37.0809
37.08003
37.07884
37.07732
37.0753
37.08132
37.08182
37.08287
37.0836
37.08377
37.08337
37.08225
37.08186
37.08103
37.08721
37.08776
37.0878
37.08772
37.00173
37.00148
37.00151
37.00157
37.00162
37.00166
37.00169
37.00172
37.00174
37.00176
37.00177
37.00177
37.00177
37.00177
37.00176
37.00175
37.00173
37.00171
37.00168
37.00164
37.0016
37.00154
37.00148
37.0015
37.00641
37.00692
37.00723
37.00755
37.00778
37.00798
37.00814
37.00827
37.00838
37.00846
37.00851
37.00854
37.00855
37.00853
37.00849
37.00842
37.00833
37.00821
37.00806
37.00789
37.00767
37.00741
37.00704
37.00675
37.0119
37.01213
37.01262
37.01314
37.01355
37.0139
37.01419
37.01443
37.01462
37.01476
37.01486
37.01491
37.01492
37.01489
37.01482
37.0147
37.01453
37.01431
37.01405
37.01373
37.01336
37.01291
37.01231
37.01199
37.01697
37.01699
37.01758
37.01836
37.01895
37.01944
37.01985
37.0202
37.02047
37.02068
37.02082
37.02089
37.02091
37.02086
37.02076
37.02059
37.02034
37.02003
37.01965
37.0192
37.01867
37.01801
37.01724
37.01684
37.02071
37.02161
37.02224
37.0232
37.02397
37.02461
37.02515
37.02561
37.02597
37.02624
37.02642
37.02651
37.02653
37.02648
37.02634
37.02611
37.0258
37.02539
37.0249
37.02431
37.02361
37.02275
37.02185
37.02109
37.02499
37.02567
37.02654
37.02771
37.02866
37.02946
37.03012
37.03067
37.03112
37.03145
37.03167
37.03179
37.03181
37.03174
37.03157
37.0313
37.03091
37.03041
37.0298
37.02908
37.02821
37.02715
37.02603
37.02541
37.02973
37.0307
37.03199
37.03306
37.03398
37.03477
37.03542
37.03594
37.03633
37.03659
37.03674
37.03677
37.03668
37.03648
37.03615
37.0357
37.03511
37.03439
37.03354
37.03254
37.03138
37.03008
37.02961
37.03348
37.03475
37.036
37.03715
37.03821
37.03911
37.03985
37.04045
37.0409
37.04121
37.04137
37.04141
37.04131
37.04107
37.0407
37.04017
37.0395
37.03868
37.0377
37.03658
37.03542
37.03413
37.03297
37.03752
37.03859
37.0397
37.04095
37.04214
37.04316
37.044
37.04467
37.04518
37.04552
37.04571
37.04575
37.04564
37.04537
37.04495
37.04436
37.0436
37.04267
37.04157
37.04032
37.03911
37.03801
37.04279
37.04307
37.04415
37.04555
37.04692
37.04808
37.04904
37.04981
37.05039
37.05079
37.05101
37.05106
37.05093
37.05062
37.05013
37.04945
37.04858
37.04752
37.04626
37.04483
37.04359
37.04287
37.04826
37.05036
37.05226
37.05396
37.05538
37.05655
37.05749
37.05821
37.05871
37.05898
37.05904
37.05887
37.05849
37.05788
37.05705
37.056
37.05471
37.05315
37.05133
37.04935
37.0556
37.05782
37.05979
37.06148
37.06287
37.06398
37.06483
37.06542
37.06575
37.06582
37.06562
37.06516
37.06444
37.06346
37.06221
37.06067
37.05884
37.05674
37.0544
37.06035
37.06244
37.06453
37.06649
37.06812
37.06942
37.07041
37.0711
37.07148
37.07156
37.07132
37.07079
37.06995
37.06881
37.06734
37.06554
37.06349
37.06149
37.06574
37.06835
37.07054
37.0724
37.07392
37.07507
37.07586
37.0763
37.07639
37.07612
37.07551
37.07454
37.07321
37.07151
37.06949
37.06713
37.06443
37.06818
37.07171
37.07384
37.07586
37.0776
37.07891
37.07982
37.08034
37.08045
37.08013
37.07941
37.07831
37.07678
37.07486
37.0728
37.07045
37.07373
37.07661
37.07873
37.08066
37.08204
37.08305
37.08366
37.08379
37.08342
37.08259
37.0814
37.07978
37.0777
37.0752
37.08092
37.08342
37.08476
37.08586
37.08652
37.08665
37.08628
37.08536
37.08411
37.08244
37.07943
37.08433
37.08725
37.08874
37.08933
37.08943
37.08907
37.08841
37.08552
37.00154
37.00148
37.0015
37.00155
37.00161
37.00165
37.00169
37.00172
37.00174
37.00176
37.00178
37.00179
37.0018
37.0018
37.00179
37.00179
37.00177
37.00175
37.00173
37.0017
37.00167
37.00163
37.00158
37.00152
37.00149
37.00147
37.00169
37.00643
37.00697
37.00718
37.00742
37.00772
37.00794
37.00812
37.00828
37.0084
37.00851
37.00858
37.00863
37.00866
37.00867
37.00865
37.00861
37.00855
37.00846
37.00834
37.0082
37.00804
37.00784
37.00759
37.00727
37.00708
37.00676
37.0119
37.01218
37.01249
37.01292
37.01344
37.01383
37.01416
37.01443
37.01466
37.01484
37.01498
37.01507
37.01513
37.01514
37.01511
37.01503
37.01492
37.01476
37.01455
37.0143
37.014
37.01365
37.0132
37.01266
37.01233
37.01203
37.01702
37.01706
37.01748
37.01805
37.01878
37.01934
37.01981
37.02021
37.02054
37.0208
37.021
37.02113
37.02121
37.02122
37.02118
37.02107
37.02091
37.02068
37.02038
37.02002
37.01959
37.01907
37.01844
37.01771
37.01725
37.01693
37.02083
37.02154
37.02217
37.02284
37.02375
37.02448
37.0251
37.02562
37.02605
37.02639
37.02665
37.02683
37.02692
37.02694
37.02689
37.02675
37.02653
37.02623
37.02584
37.02537
37.0248
37.02413
37.02332
37.02244
37.02186
37.02122
37.02517
37.02583
37.02654
37.0273
37.02839
37.02929
37.03005
37.03068
37.03122
37.03164
37.03196
37.03218
37.0323
37.03232
37.03225
37.03208
37.03181
37.03144
37.03096
37.03038
37.02968
37.02886
37.02787
37.02683
37.02623
37.0254
37.02986
37.03058
37.03152
37.03275
37.03378
37.03467
37.03543
37.03606
37.03656
37.03694
37.0372
37.03734
37.03737
37.03728
37.03708
37.03677
37.03633
37.03576
37.03507
37.03425
37.03329
37.03217
37.03095
37.03022
37.02969
37.03342
37.03445
37.03554
37.03684
37.03798
37.039
37.03987
37.04059
37.04117
37.04161
37.04191
37.04207
37.0421
37.042
37.04177
37.04141
37.0409
37.04025
37.03945
37.03851
37.03742
37.03622
37.03491
37.03393
37.03292
37.03694
37.03821
37.03928
37.04061
37.04188
37.04303
37.04402
37.04483
37.04549
37.04598
37.04632
37.0465
37.04654
37.04643
37.04617
37.04575
37.04518
37.04445
37.04355
37.04247
37.04126
37.03997
37.03866
37.03767
37.03631
37.04144
37.04281
37.04372
37.04516
37.0466
37.04793
37.04906
37.05
37.05075
37.05132
37.05171
37.05193
37.05197
37.05184
37.05154
37.05106
37.0504
37.04956
37.04852
37.04729
37.04588
37.04444
37.04317
37.04231
37.04842
37.0496
37.05168
37.05355
37.05519
37.05659
37.05774
37.05866
37.05937
37.05985
37.06012
37.06017
37.06001
37.05964
37.05904
37.05823
37.05719
37.05592
37.0544
37.05264
37.05066
37.04878
37.04797
37.05445
37.05707
37.05932
37.06125
37.06291
37.06429
37.06539
37.06623
37.06681
37.06713
37.06719
37.067
37.06655
37.06584
37.06487
37.06363
37.06212
37.06032
37.05825
37.05573
37.05354
37.06146
37.06406
37.06624
37.06816
37.06977
37.07106
37.07204
37.07272
37.0731
37.07317
37.07295
37.07242
37.07159
37.07045
37.069
37.06723
37.06518
37.0629
37.05968
37.06485
37.06761
37.07026
37.07246
37.0743
37.0758
37.07694
37.07772
37.07816
37.07825
37.07799
37.07737
37.07641
37.0751
37.07342
37.07141
37.069
37.06625
37.07009
37.07352
37.07595
37.07802
37.07974
37.08104
37.08193
37.08244
37.08254
37.08224
37.08153
37.08044
37.07893
37.07702
37.07479
37.07189
37.06838
37.07571
37.07865
37.08105
37.08302
37.08446
37.08547
37.08604
37.08615
37.08581
37.08502
37.0838
37.0821
37.07991
37.07707
37.07404
37.08043
37.08325
37.08571
37.08739
37.08852
37.08911
37.08922
37.08888
37.08803
37.08662
37.08461
37.08179
37.07814
37.08395
37.08732
37.08985
37.0911
37.0916
37.09169
37.09142
37.09061
37.08841
37.08609
37.09143
37.09202
37.09217
37.09224
37.09207
37.09208
37.00143
37.00153
37.00154
37.00155
37.00158
37.00164
37.00168
37.00171
37.00174
37.00177
37.00179
37.0018
37.00181
37.00182
37.00182
37.00182
37.00181
37.0018
37.00178
37.00176
37.00173
37.0017
37.00166
37.00161
37.00156
37.00154
37.00154
37.00147
37.00164
37.0065
37.00716
37.00728
37.0074
37.00759
37.00787
37.00808
37.00826
37.0084
37.00853
37.00862
37.0087
37.00875
37.00878
37.00878
37.00876
37.00873
37.00866
37.00858
37.00847
37.00833
37.00817
37.00798
37.00774
37.00747
37.00733
37.00722
37.0071
37.00582
37.01188
37.01224
37.01255
37.01283
37.0132
37.0137
37.01408
37.0144
37.01466
37.01488
37.01506
37.01519
37.01528
37.01533
37.01534
37.01531
37.01524
37.01513
37.01497
37.01478
37.01453
37.01424
37.0139
37.01347
37.01297
37.01269
37.0124
37.01202
37.01699
37.01709
37.01749
37.01792
37.01845
37.01915
37.0197
37.02015
37.02054
37.02085
37.02111
37.0213
37.02143
37.0215
37.02152
37.02147
37.02137
37.02121
37.02099
37.0207
37.02035
37.01993
37.01944
37.01882
37.01813
37.01771
37.01728
37.01694
37.0209
37.02158
37.02215
37.02271
37.02336
37.02424
37.02495
37.02554
37.02605
37.02646
37.02679
37.02704
37.02722
37.02731
37.02733
37.02727
37.02714
37.02693
37.02664
37.02626
37.0258
37.02526
37.02461
37.02383
37.02297
37.02244
37.02186
37.02127
37.02528
37.02584
37.02658
37.02721
37.02795
37.029
37.02986
37.03059
37.03121
37.03173
37.03214
37.03245
37.03266
37.03277
37.0328
37.03273
37.03256
37.0323
37.03194
37.03148
37.03092
37.03024
37.02945
37.0285
37.0275
37.02691
37.02622
37.02549
37.02921
37.03002
37.03068
37.03139
37.03225
37.03345
37.03446
37.03532
37.03605
37.03666
37.03715
37.03752
37.03777
37.03791
37.03793
37.03785
37.03766
37.03735
37.03692
37.03637
37.0357
37.0349
37.03397
37.03288
37.03173
37.03104
37.03033
37.02953
37.03343
37.03441
37.0353
37.03629
37.03761
37.03875
37.03974
37.04059
37.04129
37.04185
37.04228
37.04257
37.04273
37.04276
37.04266
37.04244
37.04208
37.04159
37.04096
37.04018
37.03926
37.0382
37.03698
37.0357
37.03487
37.03393
37.03298
37.03699
37.03811
37.03903
37.04005
37.04147
37.04274
37.04387
37.04483
37.04562
37.04626
37.04674
37.04707
37.04725
37.04729
37.04718
37.04692
37.04652
37.04596
37.04524
37.04437
37.04333
37.04212
37.04079
37.03944
37.03858
37.0376
37.03663
37.04191
37.04267
37.04353
37.04455
37.04613
37.04759
37.04889
37.05
37.05091
37.05165
37.0522
37.05259
37.0528
37.05284
37.05271
37.05242
37.05195
37.0513
37.05048
37.04947
37.04826
37.04688
37.04536
37.04393
37.04312
37.04221
37.04881
37.04966
37.05088
37.05293
37.05476
37.05637
37.05773
37.05887
37.05977
37.06046
37.06094
37.0612
37.06126
37.0611
37.06073
37.06015
37.05935
37.05833
37.05708
37.05559
37.05387
37.05192
37.05012
37.04921
37.04844
37.05445
37.05601
37.05853
37.06074
37.06264
37.06428
37.06563
37.06672
37.06755
37.06812
37.06843
37.0685
37.06831
37.06786
37.06716
37.06621
37.06499
37.06349
37.06173
37.05968
37.05729
37.05502
37.05394
37.06018
37.06308
37.06565
37.06785
37.06975
37.07134
37.07262
37.07359
37.07426
37.07463
37.07471
37.07448
37.07396
37.07314
37.07202
37.07058
37.06884
37.06678
37.06443
37.06153
37.05887
37.06659
37.0695
37.07209
37.07428
37.07611
37.0776
37.07872
37.0795
37.07993
37.08002
37.07976
37.07916
37.0782
37.0769
37.07524
37.07324
37.07084
37.06811
37.06548
37.06889
37.07242
37.07549
37.07799
37.08007
37.08178
37.08307
37.08396
37.08445
37.08455
37.08425
37.08356
37.08247
37.08097
37.07908
37.07679
37.07402
37.07079
37.07497
37.07803
37.0809
37.08331
37.08528
37.08675
37.08775
37.0883
37.08841
37.08808
37.08731
37.08608
37.08436
37.08216
37.0795
37.07645
37.07305
37.07989
37.08296
37.08578
37.08818
37.08991
37.09102
37.09159
37.0917
37.09137
37.09054
37.08912
37.08708
37.0844
37.08123
37.07819
37.08472
37.08736
37.0905
37.09262
37.0938
37.09425
37.09434
37.09407
37.09334
37.09163
37.08915
37.08596
37.09356
37.09566
37.09624
37.09601
37.0961
37.09596
37.09604
37.09442
37.09314
37.0974
37.09764
37.00154
37.00153
37.00157
37.00157
37.00158
37.00161
37.00166
37.0017
37.00174
37.00177
37.00179
37.00181
37.00182
37.00183
37.00184
37.00184
37.00184
37.00183
37.00182
37.0018
37.00178
37.00175
37.00172
37.00168
37.00164
37.00159
37.00158
37.00157
37.00155
37.00149
37.00643
37.00716
37.00737
37.00747
37.00758
37.00774
37.008
37.00821
37.00838
37.00852
37.00864
37.00873
37.00881
37.00886
37.00888
37.00889
37.00887
37.00883
37.00877
37.00869
37.00858
37.00845
37.0083
37.00811
37.00788
37.00764
37.00752
37.00743
37.0073
37.00685
37.0119
37.01223
37.0126
37.01288
37.01314
37.01347
37.01393
37.0143
37.01461
37.01487
37.01509
37.01526
37.01539
37.01547
37.01552
37.01553
37.0155
37.01544
37.01533
37.01518
37.01498
37.01475
37.01447
37.01413
37.01371
37.01327
37.01301
37.01275
37.01243
37.01203
37.01701
37.01709
37.01751
37.01793
37.01834
37.01882
37.01949
37.02002
37.02047
37.02084
37.02115
37.0214
37.02158
37.02171
37.02178
37.02179
37.02175
37.02165
37.0215
37.02128
37.021
37.02066
37.02025
37.01977
37.01917
37.01853
37.01814
37.01772
37.01729
37.01694
37.02083
37.02158
37.02215
37.02271
37.02323
37.02384
37.02468
37.02537
37.02596
37.02645
37.02685
37.02717
37.02742
37.02758
37.02767
37.02769
37.02764
37.02751
37.0273
37.02702
37.02666
37.02621
37.02568
37.02504
37.02428
37.02347
37.02297
37.02243
37.02187
37.02125
37.02517
37.02584
37.02656
37.02723
37.02783
37.02853
37.02955
37.03039
37.0311
37.0317
37.0322
37.0326
37.0329
37.03311
37.03322
37.03325
37.03318
37.03302
37.03277
37.03242
37.03197
37.03142
37.03076
37.02998
37.02907
37.0281
37.02753
37.0269
37.02621
37.02545
37.03002
37.03074
37.03144
37.03211
37.03292
37.03409
37.03508
37.03592
37.03664
37.03723
37.0377
37.03806
37.03831
37.03844
37.03847
37.03839
37.0382
37.0379
37.03748
37.03695
37.03629
37.03552
37.0346
37.03354
37.03243
37.03178
37.0311
37.03039
37.0296
37.03343
37.03447
37.03533
37.03611
37.03702
37.03834
37.03946
37.04043
37.04126
37.04195
37.0425
37.04291
37.0432
37.04335
37.04338
37.04329
37.04307
37.04272
37.04224
37.04162
37.04086
37.03997
37.03892
37.03771
37.03647
37.03573
37.03491
37.03398
37.03293
37.03699
37.03815
37.03905
37.03986
37.04084
37.04229
37.04355
37.04465
37.04559
37.04637
37.04699
37.04746
37.04779
37.04797
37.048
37.04789
37.04764
37.04724
37.0467
37.046
37.04514
37.04412
37.04294
37.04159
37.04025
37.03946
37.03862
37.0376
37.03628
37.04191
37.04282
37.0436
37.0444
37.04544
37.04707
37.04852
37.04979
37.05088
37.05177
37.05249
37.05304
37.05342
37.05363
37.05367
37.05354
37.05325
37.05279
37.05216
37.05135
37.05036
37.04918
37.04782
37.04628
37.0448
37.044
37.0432
37.04241
37.049
37.04991
37.05084
37.05208
37.0541
37.05591
37.05748
37.05882
37.05993
37.06083
37.06151
37.06198
37.06224
37.06229
37.06213
37.06177
37.06119
37.06041
37.05941
37.05818
37.05672
37.05503
37.05312
37.05131
37.05037
37.04946
37.04852
37.05463
37.05588
37.05748
37.05993
37.06209
37.06397
37.06557
37.06691
37.06798
37.0688
37.06936
37.06968
37.06974
37.06955
37.06911
37.06842
37.06748
37.06628
37.06481
37.06307
37.06105
37.05874
37.05651
37.05524
37.05403
37.05997
37.06197
37.0647
37.0672
37.06939
37.07127
37.07284
37.0741
37.07506
37.07572
37.07609
37.07617
37.07594
37.07543
37.07462
37.07351
37.07209
37.07037
37.06833
37.06599
37.06334
37.06077
37.05903
37.06595
37.06846
37.0713
37.07385
37.07602
37.07784
37.07931
37.08042
37.08119
37.08162
37.0817
37.08145
37.08085
37.07991
37.07862
37.07698
37.07498
37.07262
37.0699
37.06702
37.06527
37.07118
37.07453
37.07748
37.07996
37.08203
37.08372
37.08501
37.08589
37.08637
37.08647
37.08618
37.0855
37.08442
37.08293
37.08104
37.07877
37.07607
37.07289
37.06947
37.07373
37.07717
37.08035
37.08313
37.08551
37.08747
37.08894
37.08993
37.09047
37.09058
37.09026
37.08949
37.08826
37.08655
37.08438
37.08179
37.07881
37.07568
37.07908
37.08246
37.0856
37.08833
37.09063
37.09233
37.09344
37.094
37.09411
37.09378
37.09296
37.09155
37.08955
37.08701
37.08411
37.08092
37.08613
37.08784
37.09063
37.09337
37.09533
37.09648
37.09699
37.09709
37.09679
37.09601
37.09444
37.0921