/*--------------------------------*- C++ -*----------------------------------*\
| =========                 |                                                 |
| \\      /  F ield         | OpenFOAM: The Open Source CFD Toolbox           |
|  \\    /   O peration     | Version:  5.x                                   |
|   \\  /    A nd           | Web:      www.OpenFOAM.org                      |
|    \\/     M anipulation  |                                                 |
\*---------------------------------------------------------------------------*/
FoamFile
{
    version     2.0;
    format      ascii;
    class       volScalarField;
    location    "20/gland";
    object      T;
}
// * * * * * * * * * * * * * * * * * * * * * * * * * * * * * * * * * * * * * //

dimensions      [0 0 0 1 0 0 0];

internalField   nonuniform List<scalar> 
202400
(
36.67266
36.73805
36.73765
36.72497
36.1753
36.21272
36.21022
36.19986
35.90501
35.89836
35.89167
35.6909
35.67939
35.68234
35.51952
35.5345
36.7694
36.84496
36.87676
36.88917
36.89111
36.88379
36.86485
36.81061
36.67764
36.20054
36.36333
36.46025
36.49765
36.50539
36.4766
36.42735
36.30208
35.88072
36.01654
36.16011
36.19876
36.20779
36.17757
36.11129
35.99192
35.6553
35.79057
35.93228
35.96681
35.97637
35.95321
35.8801
35.76151
35.51718
35.62717
35.74143
35.78289
35.78857
35.77267
35.68718
35.59109
35.37534
35.49086
35.5792
35.63339
35.63885
35.61556
35.51474
35.42993
35.35838
35.41787
35.4994
35.50639
35.47413
35.39563
35.27594
35.23995
35.31005
35.37363
35.38062
35.32997
35.28509
35.1965
35.14233
35.20868
35.24117
35.24122
35.226
35.18595
35.09842
35.1599
35.15726
35.14487
35.09652
36.82482
36.88283
36.91057
36.92306
36.92796
36.92904
36.92578
36.91838
36.90023
36.8684
36.71887
36.33737
36.486
36.57663
36.62991
36.65065
36.65526
36.64134
36.60947
36.54101
36.4425
36.21412
36.02051
36.19321
36.30582
36.38069
36.40843
36.41423
36.39709
36.35011
36.26206
36.1369
35.90962
35.78958
35.96657
36.09201
36.174
36.20437
36.20992
36.19363
36.13868
36.04285
35.89993
35.69758
35.61105
35.7845
35.91445
35.99786
36.03392
36.0389
36.022
35.95959
35.85929
35.68216
35.52299
35.46955
35.63505
35.76365
35.84671
35.8907
35.89726
35.87468
35.80873
35.69775
35.53167
35.37655
35.32273
35.50726
35.63151
35.71443
35.76319
35.77172
35.74341
35.67994
35.56796
35.40701
35.22265
35.36032
35.50799
35.59964
35.64397
35.6522
35.62456
35.56348
35.45251
35.29885
35.12043
35.25205
35.40212
35.49419
35.5363
35.54203
35.51905
35.45456
35.34266
35.19837
35.16987
35.26434
35.36659
35.41384
35.41993
35.3914
35.33061
35.2122
35.09111
35.08843
35.15397
35.21743
35.22214
35.17637
35.12286
34.9938
34.96627
35.03386
35.03314
34.99303
34.94613
36.69893
36.85048
36.9057
36.92588
36.93795
36.94485
36.94782
36.94842
36.94664
36.94203
36.93279
36.91833
36.8846
36.81494
36.17042
36.37526
36.5615
36.6464
36.69735
36.72852
36.74211
36.74477
36.73675
36.71558
36.67525
36.61355
36.48578
36.30226
36.05189
36.28432
36.40704
36.48263
36.53033
36.55118
36.55505
36.54322
36.5101
36.44977
36.35731
36.18669
35.93108
35.82372
36.06305
36.20437
36.29677
36.3549
36.38077
36.38526
36.37121
36.32984
36.25646
36.14332
35.96064
35.69282
35.65529
35.88334
36.03208
36.13527
36.20049
36.23133
36.23651
36.21993
36.17198
36.08933
35.96317
35.78258
35.52963
35.51445
35.72887
35.88613
35.99486
36.06468
36.10032
36.10662
36.08667
36.03415
35.94505
35.81321
35.62995
35.41676
35.38267
35.5905
35.75815
35.87098
35.944
35.98254
35.98978
35.96724
35.91245
35.81938
35.6822
35.46804
35.28532
35.24348
35.47408
35.64062
35.75863
35.83517
35.87408
35.88141
35.85851
35.80235
35.70573
35.56542
35.35516
35.15428
35.36277
35.53454
35.6558
35.73524
35.77461
35.78159
35.75902
35.70087
35.60128
35.45439
35.25514
35.06719
35.2419
35.41155
35.53186
35.61445
35.65512
35.66228
35.63868
35.57872
35.47754
35.33924
35.17002
35.0519
35.20656
35.33582
35.42281
35.46419
35.47214
35.44604
35.38573
35.28141
35.14278
35.04633
35.13195
35.21926
35.26702
35.27918
35.24766
35.18561
35.08842
34.96414
34.92537
35.03688
35.04754
35.04747
35.03279
34.97915
36.86021
36.90945
36.9346
36.94688
36.95413
36.9585
36.96055
36.96094
36.95976
36.95665
36.95093
36.9418
36.92426
36.89194
36.77106
36.36201
36.57815
36.68272
36.73887
36.77267
36.79333
36.80308
36.80491
36.79932
36.78452
36.75775
36.71527
36.63833
36.50045
36.23742
36.06548
36.3108
36.4594
36.54744
36.60221
36.636
36.65208
36.65504
36.64592
36.62151
36.57799
36.50952
36.39433
36.20552
35.91733
35.83151
36.0973
36.26733
36.37626
36.44693
36.49082
36.51202
36.51587
36.50393
36.4719
36.41555
36.32807
36.19137
35.98123
35.69121
35.65978
35.92395
36.10265
36.22491
36.30717
36.35884
36.38447
36.38915
36.37462
36.33645
36.27037
36.16962
36.02121
35.80625
35.53753
35.53109
35.77667
35.95913
36.09156
36.18199
36.23948
36.26888
36.27436
36.25744
36.21449
36.14125
36.03121
35.87386
35.66494
35.42158
35.40567
35.64061
35.83214
35.97268
36.06923
36.13109
36.1632
36.16932
36.15057
36.1042
36.02565
35.90863
35.7418
35.53238
35.29644
35.25154
35.51813
35.72008
35.86509
35.96631
36.03165
36.06543
36.07188
36.05212
36.00325
35.9206
35.79879
35.62759
35.38164
35.15465
35.41367
35.61755
35.76679
35.87127
35.93939
35.97443
35.98105
35.96064
35.90971
35.82401
35.69851
35.52499
35.27866
35.07004
35.27704
35.49621
35.64907
35.75564
35.82636
35.86268
35.86953
35.84836
35.79542
35.70729
35.57971
35.40172
35.18206
35.10319
35.30326
35.462
35.57115
35.64479
35.68238
35.68967
35.66737
35.61242
35.52178
35.39098
35.20106
34.99825
35.10262
35.26625
35.38013
35.45765
35.49772
35.50515
35.48217
35.42346
35.33222
35.17627
34.99621
34.94053
35.0595
35.18019
35.25967
35.29419
35.29775
35.28267
35.22414
35.12209
34.98418
34.97593
35.03578
35.0564
35.05699
35.04857
35.00626
34.92822
36.8389
36.91015
36.93653
36.95132
36.95975
36.96486
36.96797
36.9695
36.96978
36.9689
36.96664
36.9626
36.95611
36.94496
36.92555
36.88668
36.73045
36.36575
36.57844
36.69268
36.7598
36.79955
36.82417
36.8392
36.84662
36.84802
36.84374
36.83273
36.81327
36.78225
36.73059
36.64377
36.49431
36.23039
36.05442
36.31718
36.47866
36.58173
36.64666
36.68806
36.71358
36.72626
36.72864
36.72134
36.70258
36.66967
36.61799
36.53601
36.40705
36.20396
35.92458
35.8334
36.108
36.29482
36.42097
36.50486
36.56
36.59432
36.61156
36.61479
36.60487
36.57948
36.5354
36.4673
36.36412
36.21053
35.98431
35.70619
35.66567
35.93554
36.1354
36.27703
36.37525
36.44137
36.48294
36.50411
36.5081
36.49586
36.46492
36.41175
36.3308
36.21237
36.04384
35.81059
35.53538
35.51313
35.78552
35.99459
36.14807
36.25755
36.33229
36.37972
36.40418
36.40885
36.3946
36.3591
36.2987
36.20772
36.07731
35.89808
35.65767
35.37947
35.3497
35.64045
35.86752
36.03231
36.15057
36.23201
36.28406
36.31114
36.31635
36.30049
36.26139
36.19532
36.09662
35.95633
35.76404
35.48357
35.23504
35.51844
35.75548
35.92827
36.05269
36.13922
36.19492
36.22399
36.2296
36.21254
36.17063
36.10017
35.99579
35.84885
35.64628
35.3683
35.15634
35.4173
35.65529
35.83284
35.96215
36.05258
36.11116
36.14176
36.14766
36.12971
36.08558
36.01171
35.9029
35.75113
35.54483
35.27013
35.27807
35.53044
35.71605
35.85129
35.94563
36.00713
36.03928
36.04547
36.02661
35.98022
35.90296
35.78941
35.63094
35.41606
35.14502
35.09661
35.32847
35.52898
35.67328
35.77275
35.83793
35.87189
35.87843
35.85851
35.80934
35.72784
35.60761
35.43649
35.20587
34.96995
35.13372
35.34596
35.491
35.59612
35.66541
35.70071
35.70715
35.68708
35.63499
35.54913
35.42356
35.24872
35.01721
34.95478
35.13714
35.29267
35.40798
35.48062
35.51371
35.51886
35.5016
35.4488
35.35586
35.22826
35.06096
34.91291
35.07755
35.1979
35.27073
35.3008
35.30439
35.29041
35.23327
35.12917
35.01614
34.95431
35.03168
35.04291
35.03827
35.03761
35.00308
34.91892
36.7887
36.91
36.9377
36.95297
36.96263
36.96871
36.97256
36.97492
36.97612
36.97634
36.97565
36.9739
36.97085
36.96602
36.95835
36.94624
36.9265
36.88051
36.29138
36.57885
36.69703
36.76786
36.81358
36.84288
36.86168
36.87326
36.87913
36.88024
36.87683
36.86826
36.85333
36.82987
36.79322
36.73639
36.64701
36.47755
35.98474
36.30828
36.48354
36.59584
36.67062
36.72003
36.75231
36.77235
36.78256
36.7845
36.77857
36.76368
36.73792
36.69792
36.63703
36.54545
36.40664
36.17803
35.76724
36.08716
36.29848
36.44007
36.53708
36.60306
36.64701
36.67452
36.68862
36.69132
36.6831
36.66259
36.62735
36.57332
36.49314
36.37602
36.20403
35.9374
35.58185
35.90061
36.13654
36.29942
36.41377
36.49336
36.54718
36.58114
36.59868
36.60205
36.5918
36.56639
36.52305
36.45728
36.36162
36.22521
36.0302
35.72881
35.42975
35.73754
35.99245
36.17212
36.30055
36.39133
36.45338
36.49279
36.51329
36.51724
36.50522
36.47564
36.42549
36.35002
36.2417
36.08985
35.87697
35.57542
35.32524
35.60974
35.86463
36.05718
36.19697
36.29674
36.36547
36.4094
36.43237
36.43682
36.42331
36.39025
36.33453
36.25123
36.13275
35.96848
35.74485
35.45207
35.21078
35.49738
35.75364
35.95401
36.10209
36.20881
36.28289
36.3305
36.35548
36.36033
36.34563
36.30972
36.24947
36.16001
36.03388
35.86108
35.63182
35.34505
35.38291
35.65073
35.85898
36.01383
36.12629
36.20473
36.25537
36.28199
36.28716
36.27148
36.23325
36.16931
36.07478
35.94237
35.76245
35.52119
35.21945
35.25916
35.52416
35.74103
35.90455
36.02381
36.10704
36.16093
36.1893
36.19481
36.1781
36.13737
36.06944
35.96916
35.829
35.64003
35.39278
35.12155
35.04668
35.31976
35.5508
35.72847
35.85751
35.94723
36.00545
36.03603
36.04194
36.02398
35.97996
35.90671
35.79851
35.6462
35.44247
35.17654
35.12493
35.36895
35.55377
35.68916
35.78472
35.84701
35.87918
35.88522
35.86664
35.81976
35.74152
35.62717
35.46725
35.25763
34.98311
34.94749
35.15668
35.36022
35.50837
35.61043
35.67641
35.70903
35.71482
35.69658
35.64759
35.56398
35.44186
35.26706
35.05351
34.93393
35.13172
35.30791
35.41488
35.48398
35.51697
35.52217
35.50479
35.45262
35.36419
35.23135
35.04667
34.91489
35.08158
35.19185
35.2649
35.29479
35.29636
35.28501
35.22746
35.12724
35.01654
34.94097
35.01487
35.02933
35.02842
35.02607
34.97266
34.90225
36.72903
36.89437
36.93608
36.95339
36.96381
36.97073
36.97534
36.97835
36.98023
36.98119
36.98138
36.98081
36.97942
36.97701
36.97327
36.96762
36.95915
36.94605
36.921
36.84437
36.23031
36.52385
36.68836
36.76904
36.81922
36.85282
36.87533
36.89017
36.89941
36.90417
36.90509
36.9023
36.8954
36.88355
36.86522
36.83767
36.79672
36.73424
36.6235
36.38551
35.93525
36.23907
36.46551
36.59579
36.67999
36.73717
36.77599
36.80184
36.81802
36.82639
36.828
36.8231
36.811
36.79028
36.75849
36.7113
36.64206
36.53848
36.36932
36.0833
35.7219
36.01813
36.27081
36.43765
36.54934
36.6264
36.6795
36.71524
36.73775
36.74943
36.75169
36.74484
36.72797
36.69923
36.65547
36.59139
36.49876
36.36308
36.15581
35.86593
35.83641
36.10379
36.29506
36.42818
36.52176
36.58715
36.63159
36.65974
36.67441
36.67725
36.66863
36.64749
36.61164
36.55746
36.47907
36.36751
36.20822
35.97913
35.66482
35.68268
35.96038
36.16699
36.31654
36.42375
36.49958
36.55153
36.5846
36.60191
36.60527
36.59508
36.57019
36.52817
36.46505
36.37465
36.24791
36.07183
35.83153
35.51354
35.51829
35.83449
36.0521
36.21414
36.33237
36.4169
36.47521
36.51252
36.53212
36.53593
36.52438
36.49625
36.44895
36.37832
36.27803
36.13931
35.9511
35.69804
35.37623
35.40521
35.71989
35.94791
36.11994
36.24706
36.33876
36.40241
36.44332
36.46486
36.46906
36.45635
36.42546
36.37371
36.29682
36.18847
36.0402
35.84177
35.57639
35.26155
35.30203
35.61267
35.85061
36.03179
36.16658
36.26441
36.33262
36.37658
36.39979
36.40431
36.39061
36.35737
36.30183
36.21961
36.10434
35.94769
35.73915
35.46421
35.16747
35.17833
35.4858
35.7309
35.92229
36.06608
36.17101
36.24435
36.29174
36.31679
36.32167
36.30689
36.27102
36.21122
36.1229
35.99956
35.83318
35.61466
35.319
34.98483
35.2541
35.53837
35.74573
35.90263
36.01764
36.09816
36.1503
36.17782
36.18317
36.16696
36.12749
36.06177
35.9649
35.82986
35.64914
35.41157
35.13195
35.06221
35.35141
35.57144
35.73828
35.86208
35.94913
36.00557
36.03509
36.04076
36.02349
35.98089
35.90975
35.80527
35.66043
35.46979
35.1916
34.91715
34.87008
35.14354
35.37666
35.55817
35.69462
35.78881
35.84943
35.88063
35.88648
35.86847
35.82296
35.74624
35.63232
35.47306
35.2678
35.01656
34.91467
35.14716
35.35432
35.50752
35.60899
35.67386
35.70699
35.71293
35.69423
35.64527
35.56293
35.438
35.25869
35.04754
34.92377
35.12367
35.29218
35.40243
35.4715
35.50715
35.51251
35.49389
35.44016
35.35117
35.21851
35.0387
34.88826
35.04702
35.1609
35.22799
35.27517
35.28002
35.25979
35.19776
35.09694
34.96517
34.90138
34.96156
34.99257
34.99149
34.97559
34.9348
36.71324
36.87888
36.92949
36.95143
36.96364
36.97146
36.97679
36.98042
36.98286
36.98439
36.98518
36.98534
36.98487
36.98372
36.98177
36.97878
36.97437
36.96793
36.95829
36.94226
36.91114
36.80745
36.22414
36.46976
36.65879
36.75911
36.81797
36.85626
36.88244
36.90039
36.91243
36.92
36.92394
36.92471
36.92239
36.91671
36.90704
36.89227
36.87057
36.83899
36.792
36.71619
36.58215
36.31868
35.92337
36.13604
36.41922
36.57774
36.67691
36.74287
36.78835
36.81973
36.8409
36.85426
36.86123
36.86258
36.85848
36.84845
36.83141
36.80552
36.76768
36.71302
36.6327
36.50818
36.30525
36.01136
35.70528
35.91978
36.21502
36.41269
36.54415
36.63389
36.6965
36.74009
36.76967
36.78842
36.79822
36.80013
36.79436
36.78026
36.75639
36.7203
36.66797
36.59311
36.48493
36.32396
36.08072
35.78092
35.73796
36.0439
36.26619
36.42147
36.53073
36.60813
36.66256
36.69974
36.7234
36.73581
36.73822
36.73091
36.71309
36.68303
36.6378
36.57276
36.48081
36.35074
36.16498
35.89771
35.57876
35.5964
35.8985
36.13639
36.30902
36.43395
36.52392
36.58781
36.63173
36.65979
36.67454
36.67741
36.66871
36.64755
36.61196
36.55868
36.48267
36.37654
36.22965
36.02684
35.75029
35.44557
35.47228
35.76616
36.01912
36.20581
36.34349
36.44403
36.51608
36.5659
36.59785
36.61468
36.61797
36.60803
36.5839
36.54345
36.48317
36.39779
36.27994
36.11953
35.90193
35.61725
35.33292
35.33073
35.6457
35.91177
36.11032
36.25868
36.36818
36.44725
36.50221
36.53757
36.55625
36.55989
36.54886
36.52212
36.47742
36.41108
36.31771
36.18998
36.01822
35.78813
35.46503
35.22533
35.53676
35.81234
36.02071
36.17841
36.29572
36.38092
36.44038
36.47874
36.49903
36.50299
36.491
36.46197
36.41354
36.34189
36.24154
36.1052
35.92362
35.68378
35.36096
35.12616
35.4142
35.69096
35.90972
36.07805
36.20437
36.29666
36.36131
36.40312
36.42527
36.42959
36.4165
36.38483
36.3321
36.25433
36.14591
35.9997
35.8071
35.55851
35.2643
35.20047
35.4913
35.73036
35.91475
36.054
36.15651
36.22861
36.27535
36.30012
36.30495
36.29033
36.2549
36.196
36.10943
35.9894
35.82887
35.61795
35.35176
35.06331
35.00044
35.28907
35.55225
35.75094
35.90147
36.01345
36.09244
36.14367
36.1707
36.17595
36.16003
36.12126
36.0567
35.96196
35.83138
35.65872
35.42789
35.13922
35.07843
35.36061
35.57163
35.73578
35.85912
35.94543
36.00115
36.03037
36.036
36.01887
35.97679
35.90643
35.80245
35.65899
35.47267
35.23103
34.92951
34.88557
35.13166
35.36749
35.54962
35.6861
35.78016
35.84064
35.87238
35.8784
35.85993
35.81414
35.73769
35.62367
35.46427
35.25837
35.01924
34.89639
35.13133
35.33914
35.486
35.58865
35.65438
35.68949
35.69592
35.67578
35.62541
35.54205
35.41989
35.24409
35.03002
34.89116
35.09029
35.24702
35.3599
35.43162
35.47238
35.47974
35.45665
35.40033
35.30991
35.18371
35.00726
34.97167
35.07336
35.16118
35.19922
35.21091
35.18625
35.10944
35.03162
34.91378
34.85761
34.92122
34.92181
34.90725
36.71178
36.86745
36.91745
36.94657
36.96168
36.97098
36.97718
36.98146
36.98443
36.98644
36.98772
36.98838
36.98851
36.98812
36.98716
36.98554
36.98308
36.97951
36.97437
36.96684
36.95512
36.93499
36.89304
36.81589
36.22847
36.44459
36.60598
36.73591
36.80831
36.8538
36.88432
36.90549
36.92021
36.9302
36.93652
36.93983
36.94048
36.93852
36.93377
36.92571
36.91353
36.89585
36.87048
36.83346
36.77662
36.68213
36.51841
36.33875
35.93472
36.14678
36.3416
36.53984
36.6601
36.73827
36.79149
36.82866
36.85462
36.87228
36.88349
36.88937
36.89051
36.88705
36.87861
36.86435
36.84283
36.81172
36.76731
36.70311
36.60677
36.45436
36.23149
36.0358
35.72007
35.9205
36.12873
36.36532
36.52155
36.62728
36.7007
36.75249
36.78888
36.81375
36.82959
36.8379
36.83953
36.83462
36.82268
36.80257
36.77233
36.72884
36.66722
36.57936
36.45124
36.25962
36.00464
35.81475
35.56003
35.70983
35.95254
36.21313
36.39481
36.52253
36.61326
36.67806
36.72392
36.75543
36.77555
36.78614
36.78821
36.78195
36.76677
36.74125
36.70302
36.64839
36.5717
36.46419
36.31202
36.0948
35.81427
35.64235
35.44317
35.57024
35.80684
36.0793
36.27933
36.42451
36.52982
36.606
36.66034
36.69785
36.72189
36.73457
36.73705
36.72956
36.7114
36.68095
36.63553
36.57103
36.48138
36.35774
36.18721
35.9536
35.66893
35.49963
35.45221
35.67485
35.95728
36.17314
36.33285
36.45051
36.53657
36.59843
36.64133
36.66891
36.68348
36.68633
36.67771
36.65686
36.62198
36.57015
36.49697
36.39619
36.25905
36.07311
35.82467
35.54421
35.3806
35.33932
35.55362
35.8461
36.07499
36.24678
36.37502
36.46971
36.53821
36.58592
36.61667
36.63296
36.63614
36.62651
36.60323
36.56439
36.50685
36.42604
36.31564
36.16709
35.96851
35.70651
35.403
35.26249
35.21453
35.44324
35.74588
35.98363
36.16534
36.30275
36.40505
36.47946
36.53149
36.56511
36.58292
36.58641
36.57587
36.55041
36.50799
36.44535
36.35779
36.23895
36.08069
35.87241
35.60296
35.29605
35.134
35.32738
35.62375
35.87069
36.06357
36.21156
36.32269
36.40403
36.46113
36.49811
36.51774
36.52158
36.50996
36.48192
36.43531
36.3667
36.27126
36.14267
35.97325
35.7545
35.4763
35.20117
35.11807
35.42575
35.68638
35.89743
36.06133
36.18533
36.27681
36.34136
36.3833
36.40559
36.40995
36.39676
36.36494
36.31215
36.23476
36.1278
35.98489
35.79805
35.56223
35.2597
35.20149
35.49826
35.73008
35.90907
36.0449
36.14587
36.21735
36.26383
36.28849
36.29331
36.27873
36.24348
36.18499
36.09939
35.98174
35.82571
35.62071
35.36578
35.04899
34.99307
35.28664
35.54975
35.74416
35.89286
36.00416
36.08279
36.13383
36.16088
36.16615
36.15019
36.11149
36.04721
35.9529
35.82351
35.65358
35.42907
35.14446
35.07268
35.34815
35.55842
35.7221
35.84473
35.93094
35.98689
36.01661
36.02238
36.00486
35.96237
35.89195
35.78836
35.64562
35.45966
35.22239
34.92382
34.85934
35.10877
35.34503
35.52563
35.65957
35.754
35.81548
35.84857
35.85495
35.83547
35.78846
35.71121
35.59834
35.4413
35.23602
34.99496
34.84994
35.08744
35.28845
35.43771
35.54183
35.61011
35.64787
35.65515
35.63296
35.58001
35.49491
35.36987
35.1976
34.99021
35.00653
35.17265
35.2817
35.35933
35.40438
35.41252
35.38748
35.32501
35.22848
35.08589
34.88858
34.88113
34.98077
35.0541
35.12426
35.12906
35.0832
35.02573
34.94786
36.76515
36.87106
36.91276
36.93766
36.95773
36.96917
36.97658
36.98163
36.98517
36.98765
36.98934
36.99042
36.99099
36.9911
36.99077
36.98995
36.98858
36.98652
36.98355
36.97933
36.97324
36.96412
36.94936
36.92418
36.89632
36.82648
36.67668
36.25277
36.45406
36.59042
36.69484
36.78925
36.84492
36.88133
36.90632
36.92387
36.93619
36.94461
36.94997
36.95279
36.95334
36.95167
36.94763
36.94082
36.93059
36.91586
36.89494
36.86491
36.82024
36.74923
36.63646
36.53093
36.35122
35.94925
36.15869
36.32748
36.47618
36.62832
36.72295
36.78619
36.83007
36.86107
36.88289
36.89784
36.90738
36.9124
36.91338
36.91041
36.90322
36.89112
36.87296
36.8469
36.81005
36.75756
36.68065
36.56228
36.3908
36.25073
36.04602
35.72871
35.9378
36.1156
36.28739
36.4802
36.60653
36.6933
36.7544
36.79792
36.82872
36.84988
36.86341
36.87053
36.87193
36.86771
36.8575
36.84036
36.81468
36.77799
36.72645
36.65381
36.54951
36.39481
36.18641
36.03361
35.82307
35.55572
35.76698
35.93996
36.12581
36.34649
36.49746
36.60406
36.6804
36.73531
36.77441
36.80138
36.81866
36.82778
36.82956
36.82417
36.81111
36.78923
36.75656
36.71012
36.64536
36.55526
36.42867
36.24736
36.0147
35.85924
35.65346
35.44293
35.62382
35.79199
35.98668
36.22576
36.3959
36.51907
36.6087
36.67382
36.72048
36.75281
36.77358
36.78456
36.78671
36.78022
36.7645
36.73823
36.69916
36.64389
36.56743
36.46239
36.31774
36.11695
35.87022
35.70792
35.53123
35.48383
35.66614
35.86266
36.11528
36.30114
36.43833
36.53954
36.61375
36.66725
36.70447
36.72845
36.74115
36.74363
36.73612
36.71797
36.68767
36.64277
36.57957
36.49279
36.37492
36.21522
35.99889
35.74474
35.5807
35.3986
35.36845
35.55013
35.75004
36.0139
36.21248
36.36151
36.47282
36.55513
36.61481
36.65648
36.68339
36.69766
36.70046
36.69201
36.67162
36.63766
36.58747
36.51715
36.42126
36.29236
36.12022
35.89145
35.62876
35.4667
35.28061
35.27607
35.43908
35.64754
35.92031
36.12894
36.28802
36.40822
36.4978
36.56307
36.6088
36.63839
36.65411
36.65719
36.64789
36.62544
36.58813
36.53314
36.4564
36.35241
36.21393
36.03155
35.79326
35.52289
35.3416
35.20662
35.15906
35.30988
35.52561
35.80476
36.02455
36.19524
36.32586
36.42399
36.49591
36.54649
36.5793
36.59675
36.60017
36.58984
36.56494
36.52361
36.46288
36.37856
36.26506
36.11541
35.92141
35.6732
35.39789
35.24231
35.12843
35.33047
35.61443
35.8528
36.04188
36.18829
36.29915
36.38101
36.43888
36.47656
36.49662
36.50055
36.48867
36.46006
36.41268
36.34335
36.24772
36.11999
35.95307
35.74027
35.4747
35.19522
35.05719
35.13082
35.41154
35.67691
35.88591
36.04761
36.17037
36.26154
36.32624
36.36841
36.39088
36.39529
36.38198
36.34994
36.29693
36.21956
36.11332
35.97219
35.78763
35.55313
35.24605
34.99584
35.18342
35.48585
35.71774
35.89541
36.03066
36.13157
36.20322
36.24994
36.27484
36.27972
36.26498
36.22947
36.17076
36.08507
35.96772
35.81261
35.60898
35.35293
35.03065
34.98018
35.2702
35.5289
35.72384
35.87305
35.98463
36.06376
36.11539
36.14296
36.14837
36.13203
36.09275
36.02792
35.93324
35.80351
35.63287
35.40921
35.12949
35.03563
35.30644
35.52335
35.6892
35.81304
35.90065
35.95791
35.98872
35.99476
35.97649
35.93277
35.86097
35.75609
35.61187
35.42225
35.15363
34.88697
35.03946
35.27646
35.46569
35.60705
35.70517
35.76924
35.80422
35.81106
35.79034
35.74102
35.66095
35.54232
35.37739
35.14495
34.88548
34.99693
35.19698
35.35733
35.46776
35.54022
35.58114
35.58864
35.56512
35.508
35.41855
35.28193
35.09162
34.86573
34.8854
35.05899
35.18557
35.26246
35.31166
35.31614
35.29296
35.22156
35.11673
34.97925
34.88198
34.94713
34.98855
34.96317
34.97941
34.90544
36.80733
36.87815
36.91374
36.93461
36.95079
36.96586
36.97493
36.98099
36.98519
36.98818
36.99028
36.99172
36.99265
36.99314
36.99323
36.99294
36.99225
36.99107
36.98932
36.98681
36.98327
36.97824
36.97089
36.95942
36.94167
36.92557
36.89809
36.85457
36.70105
36.29705
36.46261
36.59608
36.6827
36.7563
36.82875
36.87325
36.90313
36.92399
36.93879
36.94926
36.95645
36.96105
36.96348
36.96395
36.96252
36.95904
36.95321
36.94449
36.93202
36.91446
36.88958
36.85336
36.79752
36.71425
36.64396
36.53668
36.35957
36.20676
35.96107
36.17016
36.33821
36.46079
36.57458
36.69539
36.77215
36.82445
36.86126
36.8875
36.90611
36.91891
36.92711
36.93144
36.93229
36.92973
36.92353
36.91315
36.89762
36.87548
36.84442
36.80066
36.73765
36.64256
36.50854
36.4045
36.26051
36.06127
35.72819
35.94464
36.13022
36.27149
36.41108
36.56955
36.67402
36.74655
36.79817
36.83522
36.86158
36.87978
36.89146
36.89763
36.89883
36.89519
36.88636
36.87158
36.84955
36.81823
36.7745
36.71343
36.62675
36.49924
36.32899
36.2057
36.04356
35.82747
35.55195
35.76989
35.95989
36.10978
36.26623
36.45293
36.58031
36.67055
36.7356
36.78265
36.81631
36.83961
36.85459
36.86251
36.86406
36.85938
36.84804
36.82911
36.80093
36.76104
36.70569
36.62917
36.52228
36.36909
36.17327
36.03907
35.87054
35.65144
35.42141
35.63261
35.81391
35.96957
36.13789
36.34545
36.49152
36.59707
36.67412
36.73031
36.77072
36.7988
36.81689
36.82647
36.82835
36.82268
36.80898
36.78613
36.75224
36.70446
36.6386
36.54847
36.42453
36.25128
36.03746
35.89509
35.7259
35.52204
35.34134
35.49165
35.68651
35.84726
36.02281
36.24605
36.40752
36.52629
36.61402
36.6785
36.72512
36.75763
36.77862
36.78975
36.79194
36.78534
36.76944
36.74295
36.70377
36.64878
36.57347
36.47139
36.33304
36.14384
35.91774
35.77027
35.5956
35.41845
35.38048
35.57419
35.73704
35.91808
36.15369
36.32789
36.45808
36.55531
36.62731
36.67962
36.71623
36.73992
36.7525
36.75497
36.74751
36.72955
36.69969
36.65565
36.59408
36.51027
36.39769
36.24714
36.04509
35.80932
35.65879
35.48291
35.29086
35.28244
35.46236
35.63409
35.82159
36.06709
36.25191
36.39208
36.49784
36.57669
36.63423
36.67462
36.70081
36.71474
36.71748
36.70922
36.68935
36.65636
36.60783
36.54024
36.44874
36.32685
36.16586
35.95336
35.70921
35.55209
35.35689
35.19477
35.17896
35.33355
35.51289
35.70403
35.95919
36.15604
36.3079
36.42379
36.51083
36.57468
36.61966
36.64889
36.66446
36.66752
36.65829
36.63609
36.59931
36.54535
36.47053
36.36986
36.23697
36.06389
35.84013
35.58916
35.42949
35.26218
35.16698
35.32204
35.51494
35.78079
35.99681
36.16699
36.29836
36.39783
36.4713
36.52332
36.55724
36.57533
36.57889
36.56816
36.54238
36.49976
36.43749
36.35167
36.23708
36.0872
35.89496
35.65411
35.39834
35.23681
35.08586
35.12418
35.31516
35.59338
35.83333
36.0225
36.16883
36.28002
36.36258
36.42125
36.45957
36.48004
36.48406
36.47193
36.44277
36.39465
36.32455
36.22837
36.10055
35.93373
35.72034
35.45487
35.18778
35.04618
35.10349
35.39024
35.65746
35.86642
36.02824
36.15155
36.24346
36.30892
36.35172
36.37461
36.3791
36.36553
36.33295
36.27924
36.2011
36.0942
35.95271
35.76825
35.53324
35.22399
34.95834
35.15984
35.46109
35.69017
35.86904
36.00589
36.10812
36.18093
36.22859
36.25411
36.25913
36.24399
36.20769
36.14792
36.06099
35.94217
35.78546
35.58201
35.32875
35.00616
34.92751
35.2317
35.48235
35.68198
35.83508
35.94956
36.03089
36.08408
36.11267
36.1183
36.10132
36.06074
35.99405
35.89681
35.76376
35.58862
35.36054
35.08592
34.97897
35.23385
35.45605
35.62916
35.75953
35.85128
35.911
35.94327
35.94959
35.93048
35.88477
35.80988
35.69946
35.54836
35.35044
35.09892
34.81243
34.96815
35.1907
35.37954
35.53021
35.63421
35.70126
35.73789
35.74478
35.72347
35.67165
35.58777
35.4603
35.28938
35.07236
34.83743
34.87785
35.08401
35.25864
35.372
35.44602
35.48674
35.49234
35.47145
35.41241
35.32184
35.17917
35.0009
34.94434
35.05282
35.13607
35.18022
35.17971
35.164
35.0858
35.005
34.85231
34.87692
34.88349
36.76516
36.87815
36.91414
36.93494
36.94842
36.96015
36.97204
36.97948
36.98454
36.9881
36.99064
36.99245
36.9937
36.9945
36.99493
36.99501
36.99476
36.99415
36.99314
36.99163
36.98948
36.98647
36.98224
36.97614
36.96688
36.95341
36.94238
36.92571
36.89931
36.8429
36.25284
36.46259
36.59714
36.6855
36.74603
36.80119
36.85904
36.89569
36.92072
36.93841
36.95107
36.96007
36.96629
36.97028
36.97239
36.97281
36.97156
36.96854
36.96349
36.95596
36.94527
36.93031
36.90932
36.87922
36.83379
36.76923
36.71847
36.64566
36.53719
36.36747
35.94934
36.17022
36.34182
36.46709
36.55972
36.6491
36.74757
36.81141
36.85548
36.88682
36.90932
36.92536
36.93646
36.94358
36.94736
36.9481
36.94586
36.94047
36.93146
36.91804
36.899
36.87245
36.83537
36.7826
36.70416
36.59681
36.51682
36.40921
36.26298
36.05479
35.72879
35.94472
36.13425
36.28058
36.39385
36.50822
36.64038
36.72842
36.79005
36.83424
36.86614
36.88895
36.90476
36.91493
36.92032
36.92138
36.91819
36.91049
36.89763
36.87853
36.8515
36.81394
36.76184
36.6885
36.58151
36.44074
36.34075
36.21212
36.04553
35.8265
35.5558
35.76996
35.96426
36.12108
36.24742
36.3799
36.53902
36.64791
36.72533
36.78139
36.82212
36.85136
36.87167
36.88476
36.8917
36.89306
36.88895
36.87904
36.86251
36.83799
36.80339
36.75558
36.68978
36.59827
36.46746
36.3012
36.18759
36.0469
35.8721
35.65266
35.44297
35.63264
35.82139
35.98253
36.11782
36.26361
36.44395
36.57048
36.66189
36.72877
36.77769
36.81297
36.83754
36.85341
36.86183
36.86349
36.8585
36.84647
36.82645
36.79682
36.75516
36.69792
36.61978
36.5125
36.36215
36.17663
36.0532
35.9053
35.73013
35.52662
35.49165
35.69368
35.86092
36.00267
36.15789
36.35483
36.49626
36.59999
36.67667
36.73313
36.77404
36.80263
36.82112
36.83095
36.83287
36.82705
36.81303
36.78971
36.7553
36.70709
36.64122
36.55205
36.43113
36.26484
36.06498
35.93471
35.7807
35.59891
35.40945
35.3805
35.58409
35.75304
35.89867
36.06082
36.271
36.42501
36.53963
36.62517
36.68858
36.73472
36.76706
36.78803
36.79918
36.80137
36.79476
36.77885
36.75244
36.71356
36.6593
36.58554
36.4865
36.35376
36.17436
35.96349
35.82854
35.67172
35.4885
35.28952
35.28246
35.48216
35.65333
35.80268
35.97056
36.19146
36.35627
36.48059
36.57421
36.64402
36.69503
36.73089
36.75419
36.76659
36.76903
36.76167
36.74399
36.71467
36.67162
36.61175
36.53076
36.42279
36.27971
36.08936
35.86964
35.73055
35.57066
35.38543
35.19784
35.17899
35.3714
35.53715
35.68668
35.85934
36.09158
36.26876
36.40455
36.50788
36.58545
36.6424
36.68258
36.70873
36.72268
36.72542
36.71715
36.69727
36.66439
36.61624
36.54953
36.45981
36.34121
36.18603
35.98351
35.75525
35.61371
35.4575
35.27431
35.1799
35.34109
35.4976
35.67807
35.92587
36.1221
36.27566
36.39394
36.48348
36.54966
36.59657
36.62721
36.64359
36.64681
36.6371
36.61378
36.57532
36.51921
36.44194
36.33878
36.20375
36.02981
35.80926
35.5692
35.4215
35.25253
35.09242
35.14688
35.29856
35.49022
35.75415
35.9711
36.14241
36.27505
36.37596
36.45093
36.50427
36.53919
36.55788
36.56155
36.55047
36.52388
36.48008
36.41639
36.32908
36.21312
36.06206
35.86872
35.62797
35.37461
35.21558
35.04831
35.08966
35.28661
35.56782
35.80826
35.99789
36.14531
36.25791
36.34191
36.40185
36.44114
36.46219
36.46633
36.45384
36.4239
36.37465
36.30318
36.20553
36.07642
35.90884
35.69511
35.42863
35.15584
35.00289
35.07411
35.36095
35.62531
35.83424
35.99792
36.12348
36.21741
36.28452
36.32856
36.35219
36.35684
36.34281
36.30924
36.25408
36.17408
36.06501
35.92133
35.73582
35.50144
35.19475
34.92387
35.11916
35.40904
35.64212
35.82488
35.96564
36.07125
36.14664
36.19605
36.2226
36.22783
36.21206
36.17437
36.11246
36.02252
35.90002
35.73929
35.53217
35.26647
34.95754
34.86141
35.13389
35.41274
35.61777
35.77633
35.89628
35.98157
36.03722
36.06715
36.07303
36.05528
36.0128
35.943
35.84089
35.70221
35.52182
35.2875
35.00582
34.8435
35.12144
35.36752
35.54753
35.68512
35.78192
35.84463
35.8784
35.88491
35.86507
35.81705
35.73842
35.62147
35.46312
35.25964
35.01294
34.82314
35.0677
35.27482
35.4299
35.53861
35.60955
35.64772
35.65451
35.6329