/*--------------------------------*- C++ -*----------------------------------*\
| =========                 |                                                 |
| \\      /  F ield         | OpenFOAM: The Open Source CFD Toolbox           |
|  \\    /   O peration     | Version:  5.x                                   |
|   \\  /    A nd           | Web:      www.OpenFOAM.org                      |
|    \\/     M anipulation  |                                                 |
\*---------------------------------------------------------------------------*/
FoamFile
{
    version     2.0;
    format      ascii;
    class       volScalarField;
    location    "20/gland";
    object      T;
}
// * * * * * * * * * * * * * * * * * * * * * * * * * * * * * * * * * * * * * //

dimensions      [0 0 0 1 0 0 0];

internalField   nonuniform List<scalar> 
202541
(
36.66863
36.72861
36.73081
36.72424
36.15208
36.18476
36.18845
36.1842
35.85762
35.86323
35.84762
35.64662
35.64183
35.64018
35.47618
35.49512
36.76544
36.83962
36.87336
36.88548
36.88779
36.88079
36.86026
36.80633
36.67077
36.18689
36.34276
36.44242
36.4804
36.48994
36.4605
36.40669
36.28586
35.85936
35.98495
36.12807
36.17042
36.18253
36.14858
36.07783
35.96657
35.62108
35.75353
35.89115
35.932
35.9446
35.91649
35.83914
35.72681
35.47268
35.58604
35.69618
35.74335
35.75161
35.73022
35.64302
35.54954
35.32458
35.44397
35.53066
35.58826
35.59563
35.56834
35.46704
35.38192
35.30438
35.36365
35.44876
35.45726
35.4221
35.34247
35.2178
35.17932
35.25261
35.32223
35.33057
35.27675
35.22558
35.13435
35.08536
35.15223
35.19115
35.19414
35.17367
35.12833
35.04266
35.10516
35.10609
35.09023
35.04287
36.82129
36.8803
36.90774
36.92044
36.9255
36.92669
36.92331
36.91558
36.89765
36.8655
36.71199
36.32364
36.47435
36.56327
36.61698
36.63867
36.64387
36.62911
36.59592
36.52886
36.42962
36.19816
35.99796
36.17342
36.28384
36.3585
36.38811
36.3949
36.37604
36.32745
36.24158
36.11609
35.88355
35.76229
35.9387
36.06326
36.14454
36.17739
36.18407
36.16554
36.10903
36.01494
35.87231
35.67083
35.57563
35.74902
35.87997
35.96293
36.00153
36.00759
35.98834
35.9246
35.82467
35.6462
35.48987
35.42749
35.59352
35.72375
35.80729
35.85364
35.86117
35.8364
35.76913
35.65685
35.48979
35.33859
35.27415
35.46116
35.58649
35.67096
35.72223
35.73168
35.70127
35.63593
35.52175
35.35973
35.1689
35.30893
35.45878
35.55304
35.60029
35.6095
35.57965
35.51572
35.40244
35.24634
35.06752
35.19864
35.35072
35.44528
35.49043
35.49741
35.4719
35.40444
35.29039
35.14577
35.11338
35.20875
35.31391
35.36353
35.37104
35.3401
35.27723
35.15489
35.03435
35.01823
35.08866
35.15604
35.16204
35.11341
35.05464
34.92613
34.8907
34.96266
34.96311
34.91974
34.8663
36.69532
36.84725
36.90352
36.92394
36.93595
36.94289
36.94598
36.94662
36.94475
36.94003
36.93085
36.9163
36.88205
36.81292
36.15578
36.36145
36.5511
36.63698
36.6876
36.71891
36.73307
36.73596
36.72747
36.70579
36.66579
36.60378
36.47418
36.29084
36.03004
36.26671
36.39069
36.46589
36.5137
36.53551
36.53978
36.52712
36.49326
36.43341
36.34058
36.1675
35.90948
35.79739
36.03932
36.18149
36.2739
36.33219
36.3593
36.36427
36.34915
36.30692
36.23377
36.12019
35.93598
35.66211
35.62466
35.85369
36.00313
36.10693
36.17261
36.20485
36.21055
36.19278
36.14383
36.06085
35.93393
35.75283
35.4977
35.47832
35.69354
35.85181
35.9616
36.03236
36.06952
36.07635
36.05515
36.0014
35.91135
35.7785
35.59481
35.37873
35.3417
35.54989
35.71911
35.8333
35.90778
35.94801
35.95581
35.93195
35.8756
35.78106
35.64255
35.42666
35.2449
35.19589
35.42932
35.59735
35.71704
35.7955
35.8363
35.84423
35.81993
35.76184
35.66338
35.52153
35.30998
35.10826
35.31479
35.48747
35.61066
35.69235
35.73376
35.7414
35.71732
35.65698
35.55523
35.40681
35.20828
35.01676
35.18798
35.35892
35.48161
35.56697
35.6098
35.61768
35.59249
35.53008
35.42611
35.28582
35.11645
34.97735
35.13857
35.27345
35.36512
35.40955
35.41833
35.39025
35.32593
35.21754
35.07372
34.96514
35.05548
35.15048
35.20224
35.21565
35.18129
35.11392
35.00924
34.88031
34.83977
34.95634
34.97071
34.97244
34.95635
34.89585
36.85751
36.90736
36.93289
36.94532
36.95258
36.95698
36.9591
36.95951
36.95828
36.95511
36.94939
36.94019
36.9224
36.8898
36.76626
36.34857
36.56823
36.67438
36.73116
36.76503
36.78584
36.79592
36.79785
36.79202
36.77694
36.75015
36.70737
36.62937
36.48986
36.21929
36.04541
36.29417
36.44495
36.53388
36.58882
36.62288
36.63951
36.64266
36.63311
36.60824
36.56462
36.4957
36.37906
36.18757
35.89441
35.80475
36.07505
36.24729
36.35718
36.42825
36.47256
36.4945
36.49859
36.48608
36.45343
36.3968
36.30869
36.17056
35.95701
35.66021
35.62726
35.8967
36.07737
36.20065
36.28361
36.33595
36.36248
36.36745
36.35225
36.31326
36.2466
36.14502
35.99532
35.77702
35.50402
35.49433
35.74459
35.92888
36.06251
36.15397
36.21243
36.24288
36.24869
36.231
36.18703
36.11286
36.00173
35.84305
35.6311
35.38358
35.36444
35.60374
35.79723
35.93922
36.0371
36.10027
36.13359
36.14006
36.12046
36.07284
35.993
35.87464
35.70624
35.49411
35.25302
35.20554
35.47686
35.68092
35.82749
35.93035
35.99732
36.03248
36.03932
36.01862
35.96824
35.88397
35.76058
35.58785
35.33848
35.10829
35.36892
35.57418
35.72511
35.83157
35.90166
35.93825
35.94529
35.92387
35.87117
35.7835
35.65614
35.48127
35.23322
35.021
35.22486
35.44642
35.60165
35.7108
35.784
35.82211
35.82945
35.80711
35.75203
35.66137
35.53124
35.35116
35.13174
35.03097
35.23822
35.40232
35.51585
35.59332
35.6334
35.64131
35.61747
35.55932
35.4647
35.32918
35.13232
34.92498
35.02313
35.1931
35.3129
35.39598
35.43935
35.44759
35.4226
35.35948
35.26236
35.09939
34.91164
34.84773
34.9728
35.10075
35.18686
35.22503
35.22956
35.21288
35.14846
35.03792
34.89088
34.87828
34.95169
34.97263
34.97646
34.96937
34.91839
34.83102
36.83399
36.90799
36.93489
36.94991
36.95845
36.96361
36.96674
36.96832
36.96862
36.96771
36.9654
36.96134
36.95478
36.94347
36.92374
36.88377
36.72711
36.34781
36.56815
36.68468
36.75286
36.79311
36.81793
36.83313
36.84077
36.84223
36.83781
36.8266
36.80698
36.77565
36.72326
36.63501
36.48137
36.21203
36.0278
36.30016
36.46487
36.56953
36.63524
36.67701
36.70286
36.71591
36.71839
36.71084
36.69173
36.65853
36.60633
36.52324
36.39209
36.18368
35.89475
35.80302
36.08519
36.27579
36.40381
36.48867
36.54439
36.57921
36.59696
36.60035
36.59007
36.56418
36.51963
36.45081
36.34631
36.19005
35.95836
35.67095
35.63215
35.90758
36.11151
36.25516
36.35452
36.42145
36.46374
36.48556
36.48975
36.47706
36.44544
36.39158
36.30971
36.18982
36.01837
35.77999
35.49199
35.47386
35.75274
35.96605
36.12168
36.23251
36.30832
36.3567
36.38197
36.38686
36.37208
36.33573
36.27437
36.18224
36.05021
35.86793
35.62219
35.33167
35.30372
35.60277
35.83446
36.0016
36.12143
36.20421
36.25746
36.28549
36.29096
36.27449
36.23434
36.16704
36.06694
35.92483
35.7293
35.44216
35.18244
35.47644
35.71809
35.89338
36.01959
36.10775
36.16492
36.19508
36.20098
36.18324
36.14008
36.0681
35.96206
35.81313
35.60723
35.32257
35.10692
35.37154
35.61352
35.79368
35.9251
36.01749
36.07782
36.10967
36.1159
36.09718
36.05158
35.97588
35.86507
35.71107
35.50165
35.22111
35.22456
35.48156
35.6707
35.80877
35.90565
35.96934
36.00298
36.00955
35.98979
35.94159
35.862
35.7458
35.58431
35.36562
35.08886
35.02372
35.26387
35.47085
35.61999
35.72339
35.79181
35.82782
35.83485
35.81374
35.76194
35.67691
35.55239
35.37573
35.13811
34.88227
35.05483
35.27438
35.42554
35.53614
35.60998
35.64799
35.65505
35.63343
35.57774
35.48683
35.35542
35.17387
34.93524
34.85984
35.04942
35.21307
35.33606
35.41486
35.45109
35.45694
35.43812
35.38053
35.28053
35.14496
34.96966
34.80632
34.97804
35.11087
35.19345
35.22629
35.23099
35.21611
35.15216
35.0372
34.914
34.85205
34.93987
34.95341
34.95157
34.94927
34.90928
34.80988
36.78283
36.90742
36.93598
36.95161
36.96143
36.9676
36.97151
36.97391
36.97513
36.97537
36.97465
36.97288
36.96978
36.96489
36.95709
36.94475
36.92445
36.87742
36.27098
36.56672
36.68865
36.76113
36.80766
36.8374
36.85644
36.8682
36.87422
36.87539
36.87188
36.86314
36.84803
36.82425
36.78701
36.72907
36.63717
36.46303
35.95421
36.28823
36.46911
36.58402
36.66013
36.71026
36.74298
36.76336
36.77384
36.77586
36.76976
36.75458
36.72847
36.68793
36.62607
36.53267
36.39002
36.15398
35.72746
36.06074
36.2786
36.42345
36.52217
36.58913
36.63373
36.66174
36.67624
36.67905
36.67059
36.64965
36.61389
36.55909
36.47764
36.35819
36.18159
35.90543
35.53463
35.86861
36.11161
36.27822
36.39459
36.47541
36.5301
36.56475
36.5828
36.58632
36.57576
36.54977
36.5057
36.43895
36.34176
36.20263
36.00252
35.68964
35.37553
35.69996
35.96272
36.14651
36.27722
36.36948
36.43263
36.47294
36.49408
36.49822
36.48582
36.4555
36.4044
36.3277
36.21762
36.06272
35.84426
35.53055
35.26636
35.56727
35.83029
36.02728
36.1696
36.2711
36.34119
36.38623
36.40998
36.41463
36.40068
36.36672
36.3098
36.22503
36.10453
35.93695
35.70736
35.4025
35.15315
35.45082
35.71489
35.91987
36.07073
36.17943
36.25515
36.3041
36.33
36.3351
36.31986
36.28287
36.22119
36.12999
36.00159
35.82525
35.58994
35.29256
35.33269
35.60732
35.82043
35.9784
36.09318
36.17356
36.22578
36.25347
36.25892
36.24264
36.20313
36.13749
36.04089
35.90587
35.72212
35.47464
35.16496
35.20068
35.47329
35.69598
35.8634
35.98561
36.07128
36.12713
36.15677
36.1626
36.14518
36.10289
36.03283
35.92993
35.78647
35.59284
35.33815
35.05587
34.9714
35.25322
35.49279
35.67622
35.80967
35.90292
35.96394
35.99625
36.00258
35.98366
35.93746
35.86111
35.74903
35.59174
35.3813
35.10363
35.04427
35.29773
35.48925
35.63037
35.73082
35.79696
35.83141
35.83798
35.81814
35.76828
35.68572
35.56612
35.39998
35.1831
34.89747
34.8447
35.06863
35.28109
35.43678
35.54553
35.61677
35.6522
35.6586
35.63891
35.58594
35.49633
35.36714
35.18426
34.9597
34.82707
35.03517
35.22051
35.33683
35.41335
35.44959
35.45558
35.43662
35.37912
35.28216
35.14003
34.94673
34.79444
34.97624
35.09909
35.18122
35.21499
35.21817
35.20416
35.1404
35.02836
34.90795
34.83391
34.91487
34.93621
34.93932
34.93023
34.87011
34.78829
36.71994
36.8909
36.93407
36.95195
36.96264
36.9697
36.97439
36.97745
36.97936
36.98035
36.98054
36.97996
36.97854
36.9761
36.9723
36.96654
36.95788
36.94439
36.91853
36.8387
36.20177
36.50804
36.6786
36.76191
36.81338
36.84767
36.87059
36.88567
36.89509
36.89998
36.90093
36.89808
36.89104
36.87899
36.86036
36.83229
36.79041
36.72608
36.61161
36.36331
35.89443
36.2134
36.44867
36.58324
36.66962
36.72799
36.76751
36.7938
36.81031
36.8189
36.82058
36.81556
36.80321
36.78214
36.74981
36.70172
36.63089
36.52426
36.34909
36.05009
35.67352
35.9845
36.24766
36.42002
36.5346
36.61328
36.66736
36.70375
36.72674
36.73874
36.74109
36.73407
36.71683
36.68757
36.64305
36.57774
36.48297
36.34331
36.12829
35.82538
35.79597
36.07499
36.27264
36.40921
36.50478
36.57142
36.61672
36.64552
36.66062
36.66358
36.65473
36.6331
36.59655
36.54137
36.46144
36.34729
36.18333
35.94533
35.61797
35.63621
35.92645
36.14
36.29345
36.40297
36.48032
36.53337
36.56727
36.58512
36.58863
36.57816
36.55264
36.50972
36.44535
36.35312
36.22341
36.04217
35.79233
35.45912
35.4663
35.79586
36.02071
36.18698
36.30784
36.39416
36.45382
36.49215
36.5124
36.5164
36.5045
36.47559
36.42718
36.35506
36.25265
36.11062
35.91691
35.65411
35.31621
35.35045
35.67685
35.91215
36.08872
36.21877
36.31255
36.37781
36.41995
36.44228
36.44669
36.43357
36.40174
36.34865
36.26999
36.15924
36.00735
35.80314
35.5284
35.20033
35.2443
35.56503
35.81025
35.9964
36.13448
36.23471
36.3048
36.35022
36.37435
36.37912
36.36494
36.33059
36.27346
36.18918
36.07117
35.91051
35.69582
35.41214
35.10386
35.11719
35.43097
35.68384
35.88102
36.02874
36.13659
36.21223
36.26141
36.28756
36.29274
36.27738
36.24016
36.17841
36.08758
35.96091
35.78981
35.56424
35.25968
34.9122
35.18478
35.47843
35.69326
35.85542
35.97446
36.05818
36.11278
36.14181
36.14754
36.13053
36.08921
36.02076
35.92039
35.7808
35.5939
35.34748
35.06008
34.98017
35.27813
35.50676
35.67998
35.80903
35.90041
35.96017
35.99165
35.9978
35.9795
35.93439
35.85953
35.75035
35.59977
35.4019
35.11307
34.83326
34.77096
35.05289
35.29714
35.48679
35.63007
35.73008
35.79516
35.82885
35.83528
35.81598
35.76714
35.68534
35.56518
35.39854
35.18385
34.92154
34.80715
35.04999
35.2675
35.42932
35.53861
35.60945
35.64568
35.65234
35.63203
35.57869
35.48943
35.35636
35.16781
34.94657
34.80717
35.01734
35.1981
35.31874
35.39522
35.43487
35.44136
35.42033
35.36115
35.26315
35.11989
34.92754
34.76556
34.93576
35.06262
35.1376
35.19061
35.19725
35.17317
35.10463
34.99273
34.84905
34.78803
34.85652
34.89295
34.89472
34.87434
34.82787
36.69835
36.87414
36.92694
36.94975
36.96238
36.97042
36.97587
36.97959
36.98207
36.98363
36.98445
36.98461
36.98413
36.98296
36.98097
36.97793
36.97342
36.96682
36.95687
36.94025
36.90778
36.7989
36.18697
36.44886
36.64643
36.75082
36.81172
36.8511
36.8779
36.89622
36.9085
36.91624
36.92028
36.92108
36.91871
36.91292
36.90306
36.88801
36.86584
36.83344
36.78496
36.70632
36.56634
36.29026
35.87293
36.10123
36.39809
36.56318
36.6658
36.73365
36.78021
36.81226
36.83386
36.84753
36.85468
36.85609
36.85191
36.84166
36.82429
36.79789
36.75922
36.70314
36.62027
36.491
36.27886
35.9686
35.64867
35.87569
36.18627
36.39231
36.52838
36.62071
36.68482
36.72936
36.75957
36.77877
36.78885
36.79084
36.78494
36.77053
36.74617
36.70934
36.65585
36.57902
36.46739
36.30018
36.04569
35.72721
35.68574
36.00858
36.24048
36.40125
36.51367
36.59297
36.64861
36.68663
36.71089
36.72366
36.72619
36.7187
36.70047
36.66975
36.62356
36.55703
36.46264
36.32842
36.13533
35.8554
35.51813
35.53867
35.8575
36.10578
36.2845
36.41307
36.50529
36.57067
36.61565
36.64446
36.65969
36.6627
36.65378
36.63208
36.59566
36.54118
36.46337
36.35439
36.2028
35.99198
35.70191
35.3868
35.40861
35.72011
35.98389
36.17709
36.3188
36.42194
36.49576
36.54687
36.57975
36.59717
36.60062
36.59041
36.56562
36.52415
36.46241
36.37494
36.25386
36.08833
35.8623
35.56354
35.26498
35.26127
35.59526
35.87208
36.07741
36.23018
36.34262
36.42375
36.48024
36.51672
36.53609
36.53994
36.52858
36.50104
36.4551
36.38705
36.29127
36.15996
35.98273
35.74407
35.40623
35.1506
35.4821
35.76809
35.9835
36.146
36.2666
36.35418
36.41544
36.45512
36.47623
36.48042
36.46804
36.43806
36.38817
36.31453
36.21144
36.07115
35.8837
35.6353
35.29861
35.0457
35.35327
35.64026
35.86652
36.0403
36.17044
36.26555
36.33237
36.3758
36.39894
36.40354
36.38997
36.35713
36.30263
36.22247
36.11084
35.96008
35.76096
35.50366
35.19503
35.12685
35.42841
35.676
35.86706
36.01115
36.11737
36.1924
36.24134
36.26744
36.27263
36.25735
36.22033
36.159
36.06923
35.94505
35.77885
35.56018
35.28457
34.98124
34.91203
35.21322
35.48574
35.69216
35.84861
35.96534
36.04818
36.10232
36.13109
36.13679
36.12001
36.0791
36.01131
35.91239
35.77658
35.59719
35.35755
35.0589
34.98797
35.2798
35.49984
35.67128
35.80069
35.89206
35.95158
35.98302
35.9892
35.97097
35.92609
35.85144
35.742
35.59196
35.3975
35.14615
34.83658
34.78275
35.03451
35.28055
35.47152
35.61567
35.71631
35.78176
35.81628
35.82298
35.80308
35.75366
35.67153
35.5505
35.38288
35.16755
34.91951
34.78104
35.02677
35.2451
35.40162
35.51279
35.58473
35.6234
35.63075
35.60863
35.55366
35.46298
35.33193
35.14577
34.92252
34.76936
34.97901
35.14669
35.27033
35.34956
35.39488
35.40351
35.37767
35.31564
35.21624
35.07942
34.89237
34.85238
34.96756
35.06563
35.10807
35.12183
35.09427
35.00878
34.92049
34.79
34.75157
34.81677
34.8215
34.80362
36.69938
36.86178
36.91407
36.94449
36.96022
36.96987
36.97625
36.98065
36.98369
36.98575
36.98705
36.98774
36.98787
36.98747
36.98649
36.98484
36.98233
36.97867
36.97338
36.96559
36.95342
36.9324
36.88855
36.80804
36.19757
36.42121
36.58987
36.72567
36.80109
36.84823
36.8797
36.90143
36.91649
36.92671
36.93319
36.93661
36.93728
36.93529
36.93042
36.9222
36.90975
36.89164
36.86555
36.82728
36.7682
36.66955
36.49833
36.31161
35.89108
36.11092
36.31457
36.52199
36.64731
36.72835
36.78322
36.82137
36.84795
36.86602
36.87752
36.88358
36.88479
36.88125
36.87261
36.85804
36.83604
36.80417
36.75849
36.69212
36.59197
36.43275
36.19942
35.99584
35.66951
35.87577
36.09283
36.34062
36.50349
36.61311
36.68883
36.74201
36.77928
36.80476
36.82101
36.82959
36.83129
36.82628
36.81407
36.7935
36.76257
36.718
36.6546
36.56375
36.43051
36.2302
35.9633
35.76675
35.50319
35.65636
35.90922
36.18232
36.37181
36.50425
36.59783
36.6644
36.71142
36.74372
36.7644
36.77533
36.77751
36.77111
36.75556
36.72944
36.69031
36.63428
36.55536
36.44416
36.28587
36.05864
35.76509
35.58711
35.38066
35.50943
35.75721
36.04301
36.25167
36.40222
36.51088
36.58918
36.64494
36.68346
36.70819
36.7213
36.72392
36.71625
36.69763
36.66643
36.61988
36.55367
36.46136
36.33348
36.15608
35.91155
35.61333
35.43602
35.38552
35.61911
35.9159
36.14102
36.3066
36.42805
36.51659
36.58014
36.62425
36.65268
36.66778
36.67079
36.66196
36.64054
36.60474
36.55154
36.47635
36.37253
36.23066
36.0373
35.77712
35.48239
35.31221
35.26661
35.49201
35.79991
36.03851
36.21659
36.34901
36.44652
36.517
36.56615
36.59793
36.61483
36.61821
36.60833
36.58436
36.5444
36.48526
36.40213
36.28831
36.13462
35.92821
35.65381
35.33359
35.18767
35.13671
35.37627
35.695
35.94279
36.13115
36.27312
36.37859
36.45528
36.50899
36.54381
36.56236
36.56608
36.55523
36.52895
36.48522
36.42072
36.33052
36.20789
36.0441
35.82766
35.54532
35.22313
35.04933
35.25207
35.56629
35.82391
36.02394
36.17704
36.29181
36.37583
36.43494
36.47339
36.49391
36.49802
36.48602
36.45698
36.40878
36.33794
36.23944
36.10656
35.93105
35.70364
35.4112
35.11832
35.02315
35.35585
35.62858
35.84783
36.01779
36.14629
36.24122
36.30846
36.35237
36.37585
36.38055
36.36685
36.33365
36.27871
36.19839
36.08759
35.93947
35.74551
35.49991
35.17995
35.11756
35.42849
35.66949
35.85554
35.99678
36.10206
36.177
36.22605
36.25227
36.25752
36.24224
36.20517
36.14386
36.05453
35.93213
35.76994
35.55681
35.2911
34.95947
34.89948
35.20351
35.47668
35.67915
35.83435
35.95101
36.03405
36.0884
36.11741
36.12321
36.10634
36.06528
35.99736
35.89831
35.7631
35.58591
35.35233
35.05649
34.978
35.26117
35.48024
35.65162
35.78088
35.87267
35.9328
35.96497
35.97139
35.95269
35.90719
35.83209
35.72253
35.57269
35.37843
35.13227
34.82933
34.74964
35.00526
35.25181
35.44129
35.58338
35.68485
35.75155
35.78771
35.7949
35.77385
35.72303
35.63982
35.51949
35.35389
35.13938
34.88963
34.73215
34.97725
35.18816
35.34725
35.46014
35.53492
35.57654
35.58484
35.56055
35.50274
35.41019
35.27588
35.09382
34.87861
34.88754
35.06611
35.18536
35.27148
35.32115
35.33063
35.30298
35.23401
35.12776
34.97411
34.76086
34.76078
34.87048
34.95223
35.02823
35.03555
34.98423
34.92068
34.8293
36.75808
36.86655
36.90929
36.93507
36.95598
36.96789
36.97557
36.98079
36.98444
36.98698
36.98872
36.98983
36.99042
36.99053
36.99019
36.98936
36.98796
36.98585
36.9828
36.97845
36.97215
36.96266
36.94727
36.9211
36.89241
36.82109
36.66632
36.22861
36.43431
36.57409
36.68222
36.78059
36.83856
36.87634
36.90214
36.9202
36.93284
36.94149
36.94701
36.94992
36.9505
36.94881
36.94467
36.93769
36.9272
36.91208
36.89053
36.85944
36.81298
36.73895
36.62173
36.51299
36.32955
35.91162
36.12705
36.30046
36.45449
36.61307
36.71163
36.77726
36.82258
36.85447
36.87688
36.89223
36.90205
36.90724
36.90828
36.90526
36.89789
36.88549
36.86688
36.84012
36.80215
36.74779
36.66779
36.54434
36.36605
36.22157
36.01175
35.68401
35.89739
36.07989
36.25778
36.45882
36.59046
36.68051
36.74363
36.78842
36.82005
36.84179
36.85572
36.8631
36.86458
36.86028
36.84982
36.83225
36.80593
36.76824
36.7151
36.63987
36.53135
36.36994
36.15323
35.99572
35.78042
35.50532
35.7193
35.89675
36.08926
36.31947
36.47683
36.5875
36.66638
36.72292
36.7631
36.79082
36.80863
36.81808
36.81998
36.81448
36.80109
36.77865
36.74514
36.69741
36.63062
36.53728
36.40554
36.21627
35.97422
35.81394
35.60375
35.38726
35.56943
35.74195
35.94391
36.19351
36.3709
36.4988
36.59145
36.65854
36.70654
36.7398
36.76123
36.77262
36.77491
36.76828
36.75216
36.7252
36.68508
36.62823
36.54933
36.44049
36.28992
36.08022
35.82324
35.65562
35.47573
35.42236
35.60996
35.81407
36.07808
36.27191
36.41437
36.51905
36.59557
36.65066
36.68901
36.71378
36.72697
36.72962
36.72195
36.7033
36.67217
36.62601
36.56094
36.47134
36.34916
36.18291
35.95684
35.69178
35.52217
35.33594
35.30174
35.48822
35.69582
35.97193
36.17908
36.33386
36.44906
36.53401
36.59555
36.63855
36.6664
36.68125
36.68425
36.6756
36.65462
36.61967
36.568
36.49552
36.39643
36.26277
36.08355
35.84427
35.57005
35.40279
35.21326
35.20519
35.37142
35.58768
35.87359
36.09138
36.25664
36.38112
36.47368
36.54108
36.58836
36.61906
36.63545
36.63876
36.62922
36.60608
36.56761
36.5109
36.4317
36.32415
36.18049
35.99055
35.74098
35.45856
35.27188
35.13597
35.07914
35.23289
35.45749
35.75157
35.98141
36.15886
36.29425
36.3958
36.47023
36.52266
36.5568
36.57506
36.57875
36.56813
36.54239
36.49965
36.43688
36.3497
36.23217
36.07681
35.87455
35.61372
35.32461
35.16471
35.03178
35.24518
35.5491
35.79947
35.99639
36.14844
36.26349
36.34854
36.40885
36.44829
36.46942
36.47371
36.46142
36.43166
36.3824
36.31042
36.21122
36.07866
35.90506
35.6826
35.40125
35.1014
34.95906
35.02729
35.33271
35.61246
35.83044
35.99866
36.12641
36.22152
36.28931
36.33377
36.35762
36.36246
36.34861
36.31505
36.2596
36.17889
36.06833
35.92152
35.72928
35.48358
35.15626
34.88613
35.08982
35.40938
35.65112
35.83621
35.97731
36.08299
36.15851
36.20811
36.23475
36.24016
36.2247
36.18723
36.12542
36.03561
35.91307
35.75138
35.53914
35.27078
34.92041
34.87623
35.18137
35.44981
35.65294
35.809
35.92634
36.01024
36.06545
36.09518
36.10122
36.08395
36.04219
35.97347
35.87371
35.73778
35.55963
35.32687
35.03591
34.93183
35.21275
35.43898
35.61278
35.74364
35.83716
35.89882
35.93229
35.93908
35.91959
35.87276
35.79609
35.68493
35.53327
35.33511
35.05539
34.77381
34.9292
35.17604
35.37472
35.5248
35.63024
35.6998
35.73808
35.74583
35.72349
35.67019
35.584
35.45749
35.28341
35.04069
34.76816
34.87631
35.08907
35.26037
35.37962
35.45902
35.50407
35.51274
35.48698
35.42471
35.32751
35.18133
34.97847
34.73838
34.75977
34.94626
35.08268
35.16764
35.22243
35.22904
35.20154
35.12425
35.0085
34.86204
34.76437
34.83485
34.88634
34.86952
34.87052
34.79389
36.80188
36.87432
36.91064
36.93202
36.94871
36.96436
36.9738
36.98008
36.98443
36.98751
36.98968
36.99116
36.99212
36.99262
36.99272
36.99243
36.99172
36.99052
36.98871
36.98613
36.98248
36.97727
36.96962
36.95768
36.93931
36.92276
36.89467
36.8503
36.69206
36.27724
36.44519
36.58135
36.67013
36.74604
36.8213
36.86761
36.89862
36.92019
36.93546
36.94623
36.95364
36.95839
36.96091
36.96142
36.95996
36.9564
36.95042
36.94146
36.92862
36.91049
36.88471
36.84704
36.78892
36.7027
36.63044
36.52075
36.34037
36.18549
35.92978
36.14193
36.31354
36.43926
36.55666
36.68219
36.76208
36.81637
36.85444
36.8815
36.90066
36.91385
36.92232
36.92681
36.92772
36.92512
36.91877
36.90811
36.89217
36.86938
36.8373
36.79195
36.7264
36.62741
36.4886
36.38157
36.23421
36.03135
35.68807
35.90774
36.09721
36.24211
36.38617
36.55088
36.65964
36.73495
36.78835
36.82656
36.85371
36.87247
36.88453
36.89094
36.89223
36.88852
36.87948
36.86431
36.84167
36.80942
36.76427
36.70096
36.61077
36.47798
36.30158
36.17473
36.00878
35.78873
35.50463
35.7259
35.9197
36.07343
36.23495
36.42911
36.56175
36.65549
36.7228
36.77134
36.80602
36.83004
36.84552
36.85376
36.85543
36.85066
36.83904
36.81959
36.79063
36.74955
36.69238
36.61302
36.50176
36.34216
36.13917
36.00105
35.82863
35.60562
35.36733
35.58221
35.76712
35.92685
36.10074
36.31672
36.4689
36.57859
36.65835
36.71635
36.75801
36.78698
36.80569
36.81565
36.81768
36.81191
36.79786
36.77438
36.73953
36.69029
36.62222
36.52871
36.39966
36.21905
35.99723
35.85062
35.67746
35.4699
35.28068
35.43444
35.63366
35.79866
35.98013
36.21262
36.38093
36.50439
36.59526
36.66187
36.70997
36.74354
36.76527
36.77687
36.77923
36.77252
36.75619
36.72896
36.68863
36.63191
36.55403
36.44806
36.30395
36.10656
35.87182
35.71991
35.54101
35.36024
35.31862
35.51593
35.68282
35.87
36.11566
36.29736
36.43276
36.53354
36.60799
36.66202
36.69987
36.72442
36.73755
36.74022
36.73263
36.71417
36.68343
36.63804
36.57448
36.48773
36.37081
36.2139
36.00289
35.7579
35.60296
35.42329
35.22773
35.2172
35.39841
35.57406
35.76802
36.02445
36.21744
36.36329
36.473
36.55461
36.61413
36.65595
36.68314
36.6977
36.70067
36.69225
36.6718
36.63779
36.58771
36.51785
36.42306
36.29638
36.12848
35.90622
35.65214
35.49055
35.29212
35.13056
35.10734
35.26068
35.44431
35.64275
35.91035
36.11631
36.27447
36.3948
36.48501
36.55117
36.59785
36.62828
36.6446
36.64794
36.63851
36.61561
36.57761
36.52182
36.44436
36.33994
36.20172
36.02096
35.78618
35.52387
35.35923
35.19025
35.07296
35.23532
35.43849
35.72044
35.94756
36.12515
36.26179
36.36514
36.44153
36.49575
36.53125
36.55032
36.55423
36.54323
36.51651
36.47227
36.40764
36.31855
36.19945
36.04326
35.84186
35.58718
35.31616
35.1466
34.98869
35.01786
35.2223
35.52026
35.77371
35.97149
36.12393
36.23971
36.32584
36.38727
36.42761
36.44932
36.45378
36.44126
36.41088
36.36069
36.28765
36.18752
36.05442
35.88032
35.65606
35.37326
35.08686
34.93622
34.99626
35.30339
35.58666
35.80528
35.974
36.10265
36.19883
36.26768
36.31299
36.33742
36.34245
36.32837
36.29421
36.2379
36.15617
36.04461
35.89707
35.7044
35.45693
35.12539
34.8369
35.05824
35.37826
35.61766
35.80424
35.94724
36.05455
36.13147
36.18221
36.20963
36.21527
36.19944
36.16115
36.09818
36.00691
35.88261
35.71901
35.50656
35.24012
34.89147
34.80815
35.13448
35.39661
35.60499
35.76524
35.88581
35.97214
36.02908
36.05997
36.06633
36.04845
36.00538
35.93471
35.83219
35.69263
35.50959
35.27136
34.98135
34.86668
35.13275
35.36461
35.54626
35.68411
35.78199
35.8463
35.88138
35.88856
35.86824
35.81938
35.73953
35.62255
35.46346
35.25647
34.99382
34.69539
34.8499
35.08186
35.28132
35.4414
35.55285
35.62559
35.66574
35.67369
35.65065
35.59479
35.50469
35.3691
35.188
34.95985
34.71598
34.74935
34.96869
35.15489
35.27679
35.35773
35.40306
35.41032
35.38638
35.32248
35.22396
35.07203
34.88188
34.82368
34.94211
35.03374
35.08333
35.08679
35.06406
34.98098
34.8879
34.72603
34.76539
34.77803
36.7581
36.87432
36.91117
36.93248
36.94632
36.95841
36.97074
36.97847
36.98372
36.98741
36.99004
36.9919
36.99319
36.99402
36.99446
36.99455
36.9943
36.99368
36.99264
36.99108
36.98887
36.98575
36.98136
36.97503
36.9654
36.95147
36.94013
36.92303
36.89601
36.83817
36.22871
36.44519
36.58304
36.67356
36.73571
36.79257
36.85255
36.89064
36.91663
36.93495
36.94803
36.95732
36.96374
36.96786
36.97006
36.97051
36.96925
36.96616
36.96098
36.95324
36.94221
36.92674
36.90497
36.87367
36.82646
36.7597
36.70749
36.63281
36.52171
36.34761
35.91177
36.14203
36.31821
36.44662
36.54174
36.63389
36.73601
36.80238
36.84814
36.88059
36.90385
36.9204
36.93186
36.93923
36.94316
36.94396
36.94171
36.93619
36.92694
36.91314
36.8935
36.86604
36.82757
36.7727
36.69116
36.58012
36.49782
36.38741
36.23748
36.02284
35.68421
35.90787
36.10249
36.25252
36.36886
36.48682
36.62393
36.71548
36.77949
36.82526
36.85823
36.88178
36.8981
36.90863
36.91425
36.9154
36.91218
36.9043
36.8911
36.87144
36.84355
36.80471
36.75065
36.67435
36.5631
36.41744
36.31453
36.18251
36.01165
35.78608
35.50551
35.72602
35.92542
36.08622
36.21601
36.35271
36.51787
36.63115
36.71159
36.76966
36.81176
36.84195
36.86294
36.87651
36.88375
36.88523
36.88108
36.87093
36.85394
36.8287
36.79301
36.74355
36.67525
36.58002
36.44392
36.2718
36.15482
36.01039
35.83112
35.60556
35.3874
35.5823
35.77612
35.94141
36.08045
36.23095
36.41826
36.54998
36.64499
36.7143
36.76488
36.80132
36.82673
36.84318
36.85198
36.85379
36.84874
36.83642
36.81584
36.78533
36.74234
36.68309
36.60195
36.49025
36.33372
36.14153
36.01439
35.86249
35.68274
35.47342
35.43451
35.64241
35.81399
35.95969
36.12
36.32473
36.47205
36.57993
36.65944
36.71786
36.76014
36.78971
36.8089
36.81917
36.82129
36.8154
36.80102
36.77705
36.74159
36.69181
36.62359
36.53094
36.40495
36.23168
36.0245
35.89027
35.73207
35.54536
35.3494
35.31874
35.52771
35.70067
35.85025
36.0178
36.23654
36.39712
36.5164
36.60516
36.67081
36.71854
36.75203
36.7738
36.78547
36.78788
36.78119
36.76488
36.7377
36.69761
36.64153
36.56509
36.46211
36.32371
36.13656
35.91775
35.77871
35.61785
35.43014
35.2244
35.21743
35.42079
35.59537
35.74869
35.92233
36.15263
36.32468
36.45414
36.55137
36.62371
36.67653
36.71371
36.73793
36.75092
36.75361
36.74617
36.72802
36.69782
36.65338
36.59145
36.50744
36.39509
36.24576
36.04688
35.81852
35.67517
35.51148
35.32285
35.1303
35.10774
35.30195
35.47088
35.62478
35.80396
36.04686
36.23222
36.3738
36.48121
36.56169
36.62075
36.66247
36.68972
36.70437
36.70741
36.69902
36.67859
36.64467
36.59489
36.52579
36.43262
36.30908
36.14687
35.93467
35.69656
35.55023
35.39016
35.20424
35.08765
35.25569
35.41935
35.6089
35.87037
36.07663
36.23711
36.36029
36.45339
36.5222
36.57108
36.60314
36.62041
36.62401
36.61414
36.5901
36.55028
36.49211
36.41187
36.30454
36.1636
35.98116
35.74847
35.49533
35.3405
35.16395
34.99654
35.04142
35.2015
35.40572
35.68681
35.91595
36.09536
36.23371
36.33884
36.417
36.47277
36.50946
36.52927
36.53341
36.5221
36.49457
36.44907
36.38284
36.29197
36.17111
36.01317
35.80968
35.55383
35.28342
35.11443
34.93941
34.96961
35.1857
35.48761
35.74263
35.94148
36.09537
36.21285
36.30065
36.36353
36.40499
36.42742
36.43211
36.41931
36.38818
36.33682
36.26227
36.16045
36.02573
35.85034
35.62477
35.33976
35.044
34.8755
34.95735
35.26686
35.54815
35.76737
35.93828
36.06941
36.16782
36.23848
36.28515
36.31044
36.31573
36.30128
36.26619
36.20842
36.12475
36.01083
35.8608
35.66658
35.41888
35.08957
34.79651
35.00905
35.31844
35.56323
35.75415
35.9013
36.01217
36.09181
36.14441
36.17295
36.17892
36.16256
36.12296
36.05786
35.96351
35.83534
35.66738
35.45045
35.16918
34.83959
34.73682
35.02724
35.31991
35.53407
35.70015
35.82643
35.91683
35.97631
36.00865
36.01537
35.99681
35.95192
35.87818
35.77069
35.62519
35.43653
35.19132
34.89375
34.71927
35.01132
35.26829
35.45756
35.60298
35.70597
35.77334
35.81007
35.81757
35.79653
35.74544
35.66189
35.53829
35.37141
35.1581
34.90228
34.69205
34.95032
35.16902
35.33353
35.44973
35.52646
35.56839
35.57651
35.55291