/*--------------------------------*- C++ -*----------------------------------*\
| =========                 |                                                 |
| \\      /  F ield         | OpenFOAM: The Open Source CFD Toolbox           |
|  \\    /   O peration     | Version:  5.x                                   |
|   \\  /    A nd           | Web:      www.OpenFOAM.org                      |
|    \\/     M anipulation  |                                                 |
\*---------------------------------------------------------------------------*/
FoamFile
{
    version     2.0;
    format      ascii;
    class       volScalarField;
    location    "20/gland";
    object      T;
}
// * * * * * * * * * * * * * * * * * * * * * * * * * * * * * * * * * * * * * //

dimensions      [0 0 0 1 0 0 0];

internalField   nonuniform List<scalar> 
202541
(
36.67589
36.73406
36.73618
36.7299
36.17415
36.20414
36.20744
36.20425
35.88885
35.89354
35.88227
35.68965
35.68311
35.68666
35.53185
35.54869
36.77048
36.84357
36.87695
36.8887
36.89092
36.88418
36.86398
36.81082
36.6771
36.20686
36.36052
36.45914
36.49582
36.50491
36.47677
36.42367
36.30453
35.89117
36.01514
36.15634
36.19713
36.20844
36.17664
36.10648
35.99742
35.66491
35.7957
35.92991
35.96967
35.98112
35.95521
35.87869
35.76959
35.52817
35.63921
35.7451
35.79132
35.79871
35.7786
35.69357
35.60327
35.39031
35.50787
35.58996
35.64539
35.6522
35.62618
35.52978
35.44617
35.37962
35.43533
35.51534
35.52297
35.49032
35.41663
35.29447
35.26525
35.3364
35.39954
35.40648
35.35822
35.31055
35.22326
35.18676
35.24579
35.28228
35.28358
35.2673
35.22303
35.14663
35.20533
35.20623
35.19219
35.15699
36.82551
36.88373
36.91069
36.92318
36.92809
36.92923
36.92598
36.91839
36.90079
36.86908
36.71775
36.34156
36.49022
36.57769
36.63046
36.65146
36.65641
36.6423
36.60975
36.54388
36.44603
36.21753
36.02767
36.20036
36.30896
36.38212
36.41074
36.41714
36.39924
36.35164
36.26752
36.14386
35.91478
35.8028
35.97643
36.09859
36.17779
36.20954
36.21575
36.19825
36.14314
36.05132
35.91113
35.7133
35.62646
35.79747
35.92544
36.00566
36.04284
36.04846
36.03023
35.96862
35.87145
35.69702
35.54279
35.48903
35.65244
35.77935
35.85952
35.90371
35.91076
35.88733
35.82309
35.71423
35.55094
35.40131
35.34858
35.5308
35.6523
35.73295
35.78115
35.78991
35.76151
35.69982
35.58947
35.43214
35.25569
35.39116
35.53545
35.62486
35.66862
35.67694
35.64969
35.58967
35.48128
35.32959
35.16419
35.29229
35.43848
35.52675
35.56839
35.57454
35.55155
35.48879
35.38089
35.24139
35.22165
35.31185
35.40808
35.45294
35.45965
35.43169
35.37587
35.2603
35.14678
35.14389
35.20585
35.26533
35.26975
35.22711
35.1769
35.05358
35.02781
35.0926
35.09012
35.05439
35.0104
36.70071
36.85085
36.90646
36.9266
36.93838
36.94518
36.94817
36.94878
36.94698
36.94238
36.93339
36.91907
36.88526
36.81675
36.17351
36.37768
36.56532
36.64995
36.69964
36.73025
36.74396
36.74672
36.73856
36.71743
36.67826
36.61725
36.48934
36.30739
36.05745
36.29145
36.41345
36.48721
36.53385
36.55493
36.55898
36.54687
36.51392
36.4554
36.36417
36.19361
35.93772
35.83588
36.07413
36.21384
36.30426
36.36093
36.38705
36.39175
36.37732
36.33638
36.26506
36.15368
35.97253
35.70095
35.67359
35.89841
36.04504
36.14629
36.20982
36.24074
36.24613
36.22921
36.18203
36.10141
35.97731
35.79936
35.54872
35.53701
35.74837
35.90321
36.00994
36.078
36.1134
36.11983
36.09976
36.04832
35.96116
35.83163
35.65127
35.43944
35.41022
35.61529
35.78016
35.89068
35.96189
35.99987
36.00716
35.98477
35.93126
35.84021
35.70566
35.49471
35.31554
35.27573
35.50531
35.66846
35.78369
35.85815
35.8963
35.90362
35.88107
35.82636
35.73217
35.59494
35.38887
35.20236
35.40198
35.56893
35.6868
35.7636
35.80194
35.80891
35.7868
35.73056
35.63395
35.49131
35.29873
35.12203
35.29006
35.4541
35.57033
35.64958
35.68853
35.69564
35.67285
35.61571
35.51782
35.38421
35.21921
35.10555
35.25806
35.38377
35.46748
35.50657
35.5141
35.48964
35.43214
35.33142
35.19695
35.1087
35.18918
35.27344
35.31885
35.32999
35.30089
35.24129
35.14799
35.02836
34.99419
35.10228
35.10758
35.10751
35.09591
35.04586
36.86081
36.91015
36.93532
36.94753
36.95464
36.95894
36.96099
36.96138
36.96019
36.95711
36.95153
36.9425
36.92498
36.89277
36.77057
36.36462
36.58163
36.68633
36.74215
36.77531
36.79557
36.80531
36.80717
36.80155
36.78692
36.76076
36.71878
36.64198
36.50419
36.23605
36.07123
36.3174
36.46608
36.55344
36.60718
36.64029
36.65633
36.65934
36.65018
36.62608
36.58355
36.51597
36.40118
36.21203
35.9216
35.84063
36.10777
36.27738
36.3852
36.45457
36.49754
36.51863
36.52253
36.51056
36.47902
36.42392
36.33769
36.20191
35.99113
35.69754
35.67347
35.93881
36.11636
36.2371
36.31787
36.36842
36.39383
36.39855
36.38406
36.34656
36.2819
36.1827
36.03579
35.82096
35.55299
35.55025
35.79603
35.97688
36.1074
36.19615
36.25237
36.28137
36.28687
36.27009
36.22801
36.15634
36.04815
35.89274
35.68458
35.44133
35.42972
35.66497
35.85442
35.99264
36.08724
36.14767
36.1792
36.18529
36.16682
36.12152
36.04471
35.92989
35.76549
35.5573
35.31974
35.282
35.54822
35.74741
35.8896
35.98854
36.05221
36.08524
36.09162
36.07227
36.02468
35.94406
35.82484
35.6567
35.41319
35.19767
35.4507
35.6503
35.7961
35.89795
35.9641
35.99817
36.00468
35.98483
35.93546
35.8521
35.72966
35.56001
35.31894
35.1224
35.32098
35.53544
35.68446
35.78804
35.85644
35.89146
35.89815
35.87774
35.82676
35.74128
35.61711
35.44324
35.23036
35.15077
35.3503
35.50606
35.61215
35.68329
35.71922
35.72619
35.70505
35.6523
35.56454
35.437
35.24866
35.04982
35.16101
35.31998
35.42967
35.50456
35.54266
35.54958
35.52818
35.47179
35.38381
35.23288
35.05297
35.01031
35.1237
35.23919
35.31627
35.34708
35.35022
35.33766
35.28201
35.18343
35.04865
35.0427
35.10419
35.11619
35.11854
35.11661
35.07488
35.00052
36.83745
36.91062
36.93719
36.95198
36.96035
36.96539
36.96844
36.96995
36.97024
36.96937
36.96713
36.96318
36.95676
36.94564
36.9262
36.88666
36.73213
36.36298
36.58095
36.69602
36.76312
36.80259
36.82682
36.84157
36.84893
36.85033
36.84609
36.83524
36.81615
36.7855
36.73402
36.64701
36.49505
36.22925
36.05316
36.32224
36.48482
36.58781
36.65222
36.69295
36.718
36.73055
36.73294
36.7257
36.70723
36.67496
36.62392
36.54231
36.41303
36.20713
35.92218
35.8383
36.11623
36.30413
36.43
36.51309
36.56733
36.601
36.61804
36.62127
36.61144
36.5865
36.54327
36.47607
36.37353
36.21965
35.99119
35.70788
35.67664
35.9476
36.14824
36.28925
36.38636
36.45138
36.49214
36.51301
36.517
36.5049
36.47455
36.42242
36.34264
36.22518
36.05664
35.82214
35.53784
35.52735
35.80185
36.01129
36.16376
36.27181
36.34524
36.3917
36.41576
36.4204
36.40637
36.37162
36.31244
36.22289
36.09382
35.91501
35.67357
35.38609
35.36712
35.66153
35.88846
36.05176
36.16825
36.24815
36.29906
36.32562
36.33078
36.31523
36.27703
36.21237
36.11539
35.97685
35.78556
35.50416
35.25595
35.54474
35.78092
35.95169
36.07401
36.15876
36.21314
36.24155
36.24708
36.23044
36.1896
36.12075
36.01838
35.87362
35.67277
35.39373
35.19228
35.44958
35.68529
35.86032
35.98721
36.07562
36.13269
36.1625
36.16829
36.15085
36.10797
36.03593
35.92941
35.78018
35.57648
35.30285
35.31657
35.56568
35.74865
35.8812
35.97327
36.03303
36.06418
36.07022
36.05202
36.00712
35.93194
35.82095
35.66523
35.45345
35.18396
35.13876
35.37068
35.56929
35.71091
35.80785
35.87105
35.90376
35.91008
35.89106
35.84363
35.76449
35.64701
35.47823
35.24998
35.00065
35.18549
35.39495
35.53666
35.63872
35.70583
35.73958
35.74571
35.72681
35.6767
35.59353
35.47129
35.29944
35.07027
35.0202
35.19549
35.34646
35.45852
35.52898
35.55969
35.56441
35.54898
35.49853
35.40836
35.28362
35.1223
34.97493
35.13574
35.25609
35.32803
35.35363
35.35692
35.34639
35.29198
35.18988
35.07652
35.02013
35.09743
35.10141
35.09699
35.10069
35.07228
34.98549
36.78698
36.90997
36.93817
36.95357
36.96322
36.96926
36.97306
36.97538
36.97656
36.97679
36.9761
36.97438
36.97138
36.96661
36.95896
36.94681
36.92678
36.88038
36.2871
36.57911
36.69943
36.77085
36.81656
36.84565
36.86419
36.87556
36.88136
36.88247
36.87911
36.87068
36.85601
36.83281
36.7963
36.73929
36.64862
36.47685
35.98025
36.30989
36.48819
36.60133
36.67606
36.72507
36.75689
36.77658
36.78666
36.7886
36.78274
36.76812
36.74281
36.70328
36.64266
36.55082
36.41023
36.17758
35.76252
36.09143
36.30581
36.44826
36.54508
36.61048
36.65378
36.68081
36.69471
36.69739
36.6893
36.66917
36.63456
36.58119
36.50147
36.38412
36.21037
35.93848
35.57889
35.90822
36.14698
36.31055
36.42451
36.5033
36.55629
36.58964
36.6069
36.61025
36.60018
36.57527
36.53271
36.46782
36.37285
36.23639
36.03987
35.73207
35.42983
35.74858
36.00638
36.18646
36.31421
36.40396
36.46499
36.50366
36.5238
36.52772
36.51595
36.48697
36.43778
36.3634
36.25604
36.10443
35.89026
35.58186
35.3306
35.6245
35.88232
36.07494
36.21373
36.31221
36.37975
36.42279
36.44531
36.44971
36.43652
36.4042
36.34959
36.26761
36.15037
35.98672
35.76198
35.46308
35.22629
35.51712
35.77527
35.97529
36.12204
36.22723
36.29994
36.34653
36.37097
36.37576
36.36143
36.3264
36.26743
36.1795
36.0549
35.88309
35.6532
35.36279
35.40893
35.6764
35.88376
36.03702
36.14774
36.22464
36.27411
36.3001
36.30519
36.28996
36.25273
36.19024
36.09743
35.96678
35.78823
35.54729
35.24532
35.2892
35.55419
35.77013
35.93191
36.04922
36.1307
36.18326
36.21087
36.21627
36.20012
36.16055
36.09427
35.99594
35.85773
35.6703
35.42292
35.14939
35.08123
35.35562
35.58679
35.76268
35.88954
35.97723
36.03389
36.06352
36.06928
36.05204
36.00943
35.9381
35.83213
35.68191
35.47957
35.21034
35.16932
35.41317
35.59525
35.7279
35.82113
35.88167
35.91265
35.91849
35.90083
35.85559
35.77952
35.6678
35.51074
35.30341
35.02675
34.99908
35.21023
35.40907
35.55371
35.65347
35.71763
35.74859
35.75407
35.73716
35.69011
35.60868
35.48923
35.31897
35.10528
34.99205
35.18726
35.359
35.46461
35.5322
35.56257
35.56736
35.55203
35.50227
35.41545
35.28489
35.10443
34.97079
35.14031
35.24871
35.31997
35.34621
35.34758
35.33842
35.28495
35.18628
35.07823
35.00472
35.07592
35.08763
35.08891
35.08509
35.03825
34.96776
36.72525
36.89368
36.93624
36.95383
36.96434
36.97126
36.97583
36.97881
36.98065
36.9816
36.98179
36.98123
36.97986
36.97749
36.9738
36.96817
36.95967
36.9464
36.92093
36.84218
36.21966
36.52125
36.6893
36.77128
36.82185
36.85545
36.8778
36.89245
36.90155
36.90625
36.90716
36.90442
36.89765
36.88598
36.86784
36.8404
36.79931
36.73604
36.62335
36.37859
35.92271
36.23614
36.4677
36.60001
36.68481
36.74195
36.78049
36.806
36.82193
36.83017
36.83178
36.82697
36.81509
36.79471
36.76326
36.71628
36.64683
36.54206
36.36976
36.07562
35.71138
36.01628
36.27491
36.44412
36.55647
36.63341
36.68609
36.72134
36.74349
36.755
36.75724
36.75053
36.73397
36.70571
36.66246
36.59871
36.5059
36.36886
36.15766
35.86047
35.83665
36.11032
36.30407
36.43779
36.53112
36.59591
36.63973
36.66741
36.68184
36.68467
36.67623
36.6555
36.62027
36.56676
36.48886
36.37723
36.21659
35.98318
35.66281
35.6858
35.96977
36.1788
36.32879
36.43555
36.51062
36.5618
36.5943
36.61131
36.61465
36.6047
36.58032
36.53904
36.47676
36.38704
36.26041
36.08312
35.8385
35.513
35.52605
35.84724
36.06691
36.22915
36.34673
36.43031
36.48771
36.52434
36.54357
36.54735
36.53609
36.50857
36.46216
36.39254
36.29314
36.15474
35.96557
35.70895
35.3793
35.41866
35.73652
35.96582
36.13777
36.26403
36.35461
36.41722
36.45733
36.47844
36.4826
36.47024
36.44006
36.38933
36.31361
36.20634
36.05864
35.85966
35.5921
35.27354
35.32185
35.63332
35.87162
36.05245
36.18619
36.28275
36.34977
36.39283
36.41554
36.42002
36.40672
36.3743
36.3199
36.23901
36.125
35.96914
35.76049
35.48497
35.1867
35.20756
35.51064
35.75561
35.94656
36.08914
36.19261
36.2646
36.31096
36.33542
36.34025
36.32594
36.29102
36.23253
36.14573
36.02382
35.85838
35.63981
35.34543
35.02319
35.28576
35.56901
35.77606
35.93153
36.04481
36.12373
36.17465
36.20144
36.20671
36.19109
36.15278
36.08862
35.99355
35.86021
35.68055
35.44261
35.1655
35.10032
35.38914
35.60849
35.77324
35.89488
35.9801
36.03514
36.06376
36.0693
36.0528
36.01155
35.94219
35.83982
35.69727
35.50826
35.23041
34.95915
34.91438
35.18844
35.42056
35.5992
35.73298
35.82529
35.8844
35.91442
35.92008
35.90308
35.85917
35.78429
35.67269
35.51651
35.31303
35.06124
34.96469
35.19661
35.40097
35.5513
35.65112
35.71447
35.74592
35.75159
35.73428
35.68728
35.60663
35.48398
35.3077
35.09817
34.97914
35.17507
35.34203
35.4506
35.51785
35.55129
35.55641
35.53935
35.48829
35.40109
35.27055
35.09121
34.94459
35.10325
35.21555
35.28056
35.32491
35.32983
35.31097
35.25225
35.1542
35.02274
34.96405
35.02223
35.04641
35.04538
35.03483
34.99644
36.70457
36.87736
36.92925
36.95165
36.96403
36.97192
36.97724
36.98086
36.98327
36.98477
36.98556
36.98571
36.98525
36.98413
36.9822
36.97925
36.97485
36.96839
36.95863
36.94233
36.91043
36.80335
36.20686
36.46386
36.65782
36.76028
36.82
36.85857
36.88474
36.90257
36.91447
36.92194
36.92582
36.92659
36.92432
36.91874
36.90921
36.8946
36.87298
36.84129
36.79379
36.71663
36.57924
36.30804
35.90413
36.12758
36.4183
36.58013
36.68067
36.74707
36.79251
36.82369
36.84461
36.85777
36.86464
36.86599
36.86198
36.85214
36.83536
36.80973
36.77205
36.71725
36.6361
36.50941
36.30157
35.99741
35.69061
35.91138
36.21505
36.41668
36.54983
36.64007
36.70259
36.74586
36.77508
36.79355
36.80321
36.80512
36.79947
36.78564
36.76215
36.72645
36.67438
36.59937
36.4902
36.32654
36.07776
35.76665
35.73122
36.04568
36.27216
36.42926
36.53899
36.61621
36.6702
36.70691
36.73021
36.74243
36.74484
36.7377
36.72023
36.69066
36.64595
36.58128
36.48925
36.35816
36.16948
35.89654
35.5682
35.59381
35.90277
36.14472
36.31908
36.44439
36.53405
36.59738
36.64072
36.66833
36.68285
36.68572
36.67723
36.6565
36.62151
36.56888
36.49337
36.38728
36.23945
36.03383
35.75169
35.44756
35.47278
35.77381
36.03017
36.2183
36.35618
36.45628
36.52763
36.57676
36.60818
36.62473
36.62801
36.61833
36.59472
36.55498
36.49548
36.41076
36.29308
36.13194
35.91199
35.6222
35.33483
35.33525
35.65751
35.9258
36.1253
36.27368
36.38259
36.46083
36.51499
36.54973
36.56808
36.57171
36.56098
36.53485
36.49097
36.42554
36.33296
36.20559
36.03337
35.80173
35.47529
35.2354
35.55299
35.82939
36.0382
36.19572
36.3123
36.39655
36.4551
36.49276
36.51267
36.51662
36.50498
36.47663
36.42913
36.35852
36.25911
36.12328
35.94152
35.70103
35.37647
35.14201
35.43522
35.71166
35.93036
36.09836
36.2238
36.31499
36.37859
36.4196
36.4413
36.44561
36.43293
36.40206
36.35039
36.27382
36.1665
36.02095
35.8284
35.58008
35.28411
35.22801
35.51776
35.7563
35.9402
36.07832
36.17947
36.25031
36.2961
36.32031
36.32512
36.31101
36.27655
36.21894
36.13382
36.01516
35.8555
35.64482
35.37964
35.08987
35.03198
35.32141
35.58391
35.78181
35.93079
36.04109
36.11862
36.16874
36.1951
36.2003
36.18503
36.1474
36.08432
35.99129
35.86248
35.69108
35.46074
35.17325
35.11703
35.39804
35.60791
35.77006
35.8914
35.97616
36.03065
36.05903
36.06457
36.04826
36.00752
35.93875
35.83668
35.69542
35.51071
35.26985
34.97126
34.93558
35.17461
35.40863
35.58862
35.72304
35.81557
35.87473
35.90535
35.91124
35.8938
35.8496
35.77477
35.6627
35.50555
35.3016
35.06471
34.94398
35.17794
35.38274
35.52792
35.62906
35.69324
35.72691
35.73319
35.71427
35.66587
35.58425
35.46386
35.28999
35.07915
34.94406
35.1399
35.29436
35.40582
35.47574
35.51466
35.52186
35.50022
35.4462
35.35775
35.23291
35.05947
35.02437
35.12535
35.21166
35.24676
35.25831
35.23621
35.16207
35.08453
34.9693
34.91481
34.97435
34.97812
34.96329
36.70608
36.8655
36.91678
36.94654
36.96192
36.97134
36.97757
36.98186
36.98481
36.9868
36.98806
36.98872
36.98885
36.98847
36.98752
36.98593
36.98349
36.97993
36.97478
36.96717
36.95528
36.93473
36.89177
36.81275
36.21892
36.43803
36.60314
36.73588
36.80956
36.85561
36.88631
36.90748
36.92211
36.93199
36.93824
36.94151
36.94216
36.94025
36.93558
36.92765
36.91558
36.89797
36.87253
36.83516
36.77746
36.68106
36.51357
36.33067
35.92468
36.13921
36.33792
36.54022
36.66253
36.74161
36.79512
36.83227
36.85806
36.87553
36.8866
36.8924
36.89355
36.89017
36.88189
36.86784
36.84653
36.81555
36.77104
36.70629
36.60854
36.45322
36.22562
36.02693
35.71497
35.91497
36.1257
36.36669
36.52539
36.63226
36.70602
36.75774
36.79389
36.81849
36.83411
36.84232
36.84395
36.83916
36.82746
36.80765
36.77772
36.73443
36.67272
36.58418
36.45432
36.25932
36.00002
35.80924
35.5629
35.70759
35.95138
36.21606
36.40034
36.52927
36.62033
36.68499
36.73052
36.76167
36.78151
36.79196
36.79404
36.78795
36.77306
36.74794
36.71013
36.65578
36.57906
36.47083
36.31678
36.09614
35.81236
35.64144
35.45185
35.5706
35.80833
36.08431
36.2868
36.43313
36.53871
36.61465
36.66857
36.70564
36.72933
36.74184
36.74433
36.73703
36.71925
36.68929
36.6444
36.58028
36.49067
36.36637
36.19405
35.95724
35.67028
35.5021
35.4568
35.67936
35.96487
36.18279
36.34344
36.46125
36.54699
36.60832
36.65069
36.67785
36.69222
36.69508
36.6867
36.66629
36.63201
36.5808
36.50812
36.40748
36.26983
36.08239
35.8312
35.54896
35.38854
35.3476
35.56156
35.85663
36.08697
36.25941
36.38765
36.48191
36.54978
36.59687
36.62715
36.64319
36.64639
36.63704
36.61427
36.57611
36.51931
36.43911
36.32897
36.1801
35.98046
35.71642
35.41104
35.27386
35.22822
35.4551
35.75937
35.99796
36.18001
36.31728
36.41904
36.49272
36.54405
36.57712
36.59466
36.59817
36.58795
36.56307
36.52143
36.45963
36.37279
36.25433
36.09595
35.88708
35.61624
35.3101
35.15384
35.34231
35.64075
35.88801
36.08088
36.22858
36.33903
36.41951
36.47579
36.51215
36.53145
36.53532
36.52408
36.49671
36.45099
36.38336
36.28878
36.16072
35.99139
35.77253
35.49317
35.21731
35.13193
35.44749
35.70845
35.91921
36.08261
36.2057
36.29611
36.35967
36.40085
36.42273
36.42712
36.4144
36.38341
36.3317
36.25551
36.14966
36.00749
35.82097
35.58533
35.28072
35.22817
35.52517
35.7565
35.93472
36.06935
36.169
36.23932
36.28492
36.30909
36.31393
36.29992
36.26566
36.20843
36.12425
36.008
35.85301
35.64856
35.39387
35.07826
35.02952
35.31936
35.58095
35.77415
35.92134
36.03111
36.10847
36.15852
36.18496
36.19024
36.17498
36.13743
36.07455
35.98183
35.85412
35.68556
35.46221
35.17881
35.11449
35.38411
35.59253
35.75449
35.87551
35.96042
36.01527
36.04422
36.04998
36.03331
35.99217
35.92323
35.8213
35.68035
35.49613
35.2617
34.97255
34.90675
35.14923
35.38347
35.56201
35.6944
35.78752
35.84775
35.87988
35.88623
35.86775
35.82232
35.74666
35.63542
35.48022
35.27722
35.03917
34.89727
35.1312
35.32952
35.47699
35.5798
35.64669
35.68326
35.69049
35.66946
35.61832
35.5349
35.41151
35.24151
35.03839
35.05044
35.21681
35.32467
35.40096
35.44448
35.45266
35.42892
35.36842
35.27334
35.1324
34.93113
34.93281
35.03188
35.10095
35.17058
35.17656
35.13039
35.07541
34.99699
36.76401
36.87043
36.91228
36.93746
36.95783
36.96942
36.9769
36.98197
36.98551
36.98798
36.98966
36.99072
36.99128
36.99139
36.99107
36.99027
36.98892
36.98688
36.98393
36.97969
36.97356
36.96433
36.94936
36.92383
36.89577
36.82583
36.67402
36.2505
36.45198
36.5886
36.69406
36.78979
36.84619
36.88294
36.90804
36.92558
36.93783
36.94617
36.95147
36.95426
36.95481
36.9532
36.94923
36.94252
36.93238
36.91771
36.89676
36.86652
36.82132
36.74931
36.63512
36.52895
36.34942
35.94662
36.15684
36.32575
36.47552
36.62955
36.72534
36.78914
36.83319
36.86416
36.88586
36.90066
36.91008
36.91505
36.91604
36.91316
36.90611
36.89419
36.8762
36.85026
36.81336
36.76052
36.68276
36.56285
36.3896
36.24899
36.04442
35.73152
35.9387
36.11555
36.28775
36.48247
36.6102
36.69766
36.75896
36.80241
36.83302
36.85397
36.86733
36.87438
36.8758
36.8717
36.86169
36.84481
36.81939
36.78288
36.7313
36.65823
36.55288
36.39641
36.18663
36.03408
35.82525
35.56523
35.77217
35.94276
36.12796
36.35017
36.50257
36.6099
36.68644
36.74122
36.78006
36.80675
36.82382
36.83284
36.83465
36.82941
36.81662
36.79507
36.76276
36.71656
36.6518
36.56125
36.43356
36.25054
36.01734
35.86328
35.66083
35.46171
35.63406
35.7981
35.99112
36.2312
36.40262
36.52648
36.61625
36.68118
36.7275
36.75948
36.77999
36.79085
36.79303
36.78673
36.77134
36.74549
36.70685
36.6519
36.57551
36.47007
36.32439
36.12216
35.87579
35.71611
35.54527
35.49824
35.67573
35.86977
36.12276
36.30963
36.44736
36.54863
36.62257
36.67565
36.71245
36.73612
36.74867
36.75119
36.74391
36.72615
36.69636
36.65198
36.58919
36.50256
36.38439
36.22384
36.00646
35.75354
35.59279
35.41697
35.38869
35.56394
35.76007
36.02359
36.22282
36.3722
36.48346
36.56542
36.6246
36.66578
36.69233
36.70643
36.70927
36.70109
36.68115
36.64778
36.5982
36.52839
36.43274
36.30366
36.13094
35.90158
35.64127
35.48379
35.30555
35.30582
35.45772
35.66041
35.93218
36.14114
36.30037
36.42042
36.50955
36.57425
36.61942
36.6486
36.66412
36.66725
36.65825
36.63633
36.59968
36.54539
36.46925
36.36559
36.22708
36.04438
35.80589
35.53926
35.36601
35.24538
35.18987
35.33167
35.54106
35.81928
36.03914
36.20976
36.34009
36.43766
36.5089
36.55883
36.59116
36.60838
36.61187
36.60189
36.57759
36.53703
36.47712
36.39352
36.28047
36.13096
35.9369
35.68859
35.41716
35.26923
35.15074
35.34632
35.63256
35.87124
36.06008
36.206
36.31611
36.3971
36.45418
36.49126
36.51103
36.51504
36.5036
36.47574
36.4293
36.361
36.26629
36.13922
35.97262
35.75981
35.49302
35.21295
35.08513
35.14635
35.43281
35.69918
35.90783
36.06883
36.19061
36.28072
36.34448
36.38596
36.40807
36.41257
36.3998
36.36865
36.31675
36.24059
36.13551
35.99527
35.81119
35.57649
35.2664
35.01705
35.20792
35.51248
35.74349
35.9201
36.05413
36.15381
36.22441
36.27034
36.2948
36.29977
36.28567
36.25121
36.19375
36.10944
35.99346
35.83952
35.63681
35.38049
35.04582
35.01235
35.30278
35.55857
35.7519
35.89969
36.00994
36.08795
36.13868
36.16573
36.17122
36.15565
36.11756
36.05411
35.9609
35.83269
35.66354
35.44188
35.1643
35.07242
35.33994
35.55494
35.7191
35.84156
35.92801
35.98426
36.01443
36.02055
36.00315
35.9608
35.89049
35.78714
35.64456
35.45681
35.19118
34.92138
35.07743
35.31199
35.49916
35.63908
35.736
35.79897
35.8332
35.84011
35.82036
35.77256
35.69406
35.57701
35.41385
35.18512
34.92241
35.03225
35.23365
35.39338
35.50256
35.57381
35.61398
35.62166
35.59899
35.54352
35.45567
35.32048
35.13034
34.90113
34.92775
35.10082
35.22521
35.29994
35.34966
35.35507
35.33098
35.26168
35.1593
35.02205
34.9274
34.98567
35.03441
35.01276
35.01975
34.9478
36.80707
36.87825
36.91376
36.93462
36.95085
36.96602
36.97518
36.98127
36.98549
36.98847
36.99056
36.99199
36.99291
36.99339
36.99349
36.99321
36.99253
36.99137
36.98964
36.98714
36.9836
36.97854
36.97113
36.95956
36.94171
36.92559
36.89817
36.85465
36.69936
36.29848
36.46344
36.59643
36.68291
36.75668
36.82962
36.87449
36.90455
36.92547
36.94025
36.95066
36.95779
36.96234
36.96475
36.96524
36.96385
36.96044
36.9547
36.94606
36.93365
36.91608
36.89108
36.85458
36.79828
36.71461
36.64431
36.53732
36.36092
36.20811
35.96484
36.17239
36.33964
36.46183
36.57565
36.69711
36.77444
36.82704
36.86394
36.89014
36.90863
36.92132
36.92944
36.93373
36.9346
36.93212
36.92606
36.91583
36.90046
36.87843
36.84736
36.80341
36.73994
36.64416
36.50975
36.40586
36.26246
36.06434
35.73613
35.95
36.13391
36.27419
36.41336
36.57233
36.67746
36.75035
36.80207
36.83904
36.86524
36.88327
36.89482
36.90094
36.90218
36.89865
36.89001
36.87547
36.85366
36.8225
36.77878
36.71748
36.63026
36.50202
36.33174
36.20908
36.04825
35.83429
35.56513
35.77975
35.96691
36.11492
36.2702
36.45702
36.585
36.67561
36.74073
36.78766
36.8211
36.84418
36.859
36.86685
36.86845
36.86391
36.85283
36.83419
36.80632
36.76665
36.71135
36.6346
36.52716
36.37339
36.17822
36.04538
35.8792
35.66337
35.44133
35.64795
35.82503
35.97768
36.14392
36.35105
36.49757
36.60344
36.68051
36.73653
36.77666
36.80446
36.82234
36.83184
36.83377
36.82829
36.8149
36.79243
36.75892
36.71142
36.64567
36.55536
36.43094
36.25738
36.04506
35.90497
35.73943
35.54033
35.36694
35.51302
35.70201
35.85863
36.03116
36.25332
36.41501
36.534
36.62168
36.68592
36.73219
36.76437
36.78512
36.79616
36.7984
36.79204
36.7765
36.75046
36.71174
36.65711
36.58197
36.47978
36.3411
36.15194
35.92829
35.78402
35.61431
35.44257
35.40795
35.59462
35.75197
35.92885
36.1627
36.33687
36.46714
36.56425
36.63594
36.68784
36.72405
36.74746
36.75993
36.76247
36.75528
36.73774
36.7084
36.6649
36.60377
36.52021
36.40762
36.25691
36.05527
35.82302
35.67683
35.50738
35.32177
35.32026
35.48883
35.65259
35.83464
36.0778
36.26238
36.40249
36.50805
36.58651
36.64357
36.68351
36.70938
36.72318
36.726
36.71806
36.69866
36.66627
36.61836
36.55129
36.46012
36.33831
36.17732
35.96555
35.72593
35.57477
35.39026
35.23992
35.22312
35.36466
35.53455
35.7194
35.97197
36.16841
36.32007
36.43564
36.52219
36.58548
36.62993
36.65879
36.67421
36.67737
36.6685
36.64686
36.61077
36.55754
36.48335
36.38311
36.25042
36.07749
35.85458
35.60874
35.45596
35.29977
35.20038
35.34555
35.53193
35.79635
36.01223
36.18211
36.313
36.41181
36.48456
36.53593
36.56939
36.58729
36.59098
36.58069
36.55561
36.51385
36.45249
36.36748
36.25349
36.10393
35.91178
35.67107
35.41959
35.2657
35.12647
35.14637
35.33239
35.61101
35.85165
36.04055
36.18624
36.29659
36.37826
36.43615
36.47393
36.49416
36.49833
36.48674
36.45842
36.41133
36.34231
36.24713
36.12008
35.95367
35.74001
35.47304
35.20869
35.07499
35.12052
35.4095
35.6788
35.8874
36.04836
36.17064
36.26152
36.32608
36.36824
36.39084
36.3955
36.38257
36.35097
36.29844
36.22154
36.11583
35.97533
35.79146
35.55567
35.24156
34.97122
35.18105
35.4858
35.7141
35.8918
36.02744
36.12853
36.20036
36.24728
36.27244
36.27764
36.26324
36.22807
36.16962
36.08407
35.96659
35.81109
35.60864
35.35454
35.02218
34.94762
35.25887
35.50913
35.70741
35.85913
35.97239
36.05267
36.10503
36.13319
36.139
36.12287
36.08356
36.01831
35.92254
35.79095
35.61726
35.39028
35.11272
35.00888
35.2636
35.4841
35.6558
35.78497
35.87562
35.93444
35.96622
35.97275
35.95453
35.91022
35.83686
35.72795
35.57828
35.38216
35.1314
34.84478
34.99902
35.22001
35.40881
35.55858
35.66147
35.72752
35.76374
35.77093
35.75038
35.70003
35.61777
35.49172
35.32156
35.10467
34.87393
34.9104
35.11707
35.29062
35.40278
35.47533
35.5163
35.52264
35.50152
35.44416
35.35543
35.21382
35.0366
34.98059
35.08867
35.16876
35.21384
35.2157
35.1965
35.12272
35.0418
34.88794
34.91183
34.9216
36.76403
36.87825
36.91436
36.93515
36.94861
36.96033
36.97224
36.97971
36.98479
36.98835
36.99089
36.99269
36.99393
36.99472
36.99514
36.99523
36.99499
36.9944
36.9934
36.9919
36.98977
36.98676
36.98251
36.97639
36.96709
36.95361
36.9426
36.92595
36.89953
36.84273
36.2506
36.46344
36.59839
36.68665
36.74705
36.80214
36.86008
36.89686
36.92197
36.93968
36.9523
36.96125
36.96742
36.97137
36.97347
36.97391
36.9727
36.96975
36.96479
36.95734
36.94671
36.93176
36.91072
36.88049
36.83491
36.77034
36.71967
36.64699
36.53845
36.36756
35.94677
36.17249
36.34462
36.46961
36.5619
36.65101
36.74952
36.81355
36.85775
36.88911
36.91155
36.92749
36.93849
36.94555
36.9493
36.95007
36.94793
36.94266
36.93379
36.92052
36.9016
36.87508
36.83791
36.78495
36.70632
36.59909
36.51937
36.4121
36.26589
36.05579
35.73172
35.95012
36.13954
36.28511
36.39765
36.5114
36.64337
36.73159
36.79335
36.83756
36.86936
36.89203
36.90769
36.91777
36.92313
36.92423
36.92117
36.91365
36.90101
36.88212
36.85525
36.81775
36.76557
36.69201
36.58489
36.4446
36.34521
36.21735
36.0513
35.83141
35.56544
35.77987
35.97302
36.12832
36.25334
36.38465
36.54321
36.65218
36.7297
36.78574
36.82633
36.85537
36.8755
36.88847
36.89537
36.8968
36.89285
36.88317
36.86692
36.84269
36.80831
36.7606
36.69473
36.60305
36.47228
36.30705
36.19453
36.05528
35.88187
35.66307
35.46186
35.64804
35.83441
35.99307
36.12626
36.27017
36.44944
36.5759
36.66735
36.73416
36.78289
36.81792
36.84227
36.85798
36.86636
36.86809
36.8633
36.85157
36.8319
36.80262
36.76125
36.70415
36.62599
36.51862
36.36859
36.1848
36.06313
35.91753
35.7448
35.5437
35.51308
35.71154
35.87513
36.01389
36.16643
36.36173
36.50287
36.60656
36.68309
36.73931
36.77992
36.80824
36.82655
36.83632
36.83834
36.83276
36.81908
36.79619
36.7622
36.71434
36.64867
36.55955
36.43865
36.27301
36.0757
35.94793
35.79726
35.61911
35.43169
35.40808
35.60717
35.77119
35.91278
36.07138
36.27931
36.43284
36.5473
36.63264
36.69573
36.74152
36.77354
36.79429
36.80538
36.80768
36.80135
36.78585
36.75993
36.72154
36.6677
36.59422
36.4953
36.36272
36.18428
35.97682
35.84523
35.69292
35.51457
35.31788
35.3205
35.51146
35.67548
35.81954
35.983
36.20115
36.3653
36.48935
36.5827
36.65213
36.70273
36.73822
36.76127
36.7736
36.77617
36.76913
36.75191
36.72316
36.68067
36.62129
36.54065
36.43288
36.29007
36.10095
35.88543
35.75063
35.5969
35.41954
35.2401
35.22355
35.40579
35.56313
35.70638
35.87382
36.10291
36.27929
36.41472
36.51768
36.59479
36.65124
36.69098
36.71685
36.73072
36.73361
36.7257
36.70638
36.67415
36.62667
36.56055
36.47126
36.35294
36.19814
35.99702
35.77363
35.63717
35.48822
35.31457
35.2174
35.37
35.51948
35.69434
35.93937
36.13499
36.28814
36.40592
36.49486
36.5604
36.60677
36.63705
36.65332
36.65672
36.64747
36.62485
36.5872
36.53194
36.45543
36.35284
36.21817
36.04451
35.82496
35.58972
35.44761
35.28683
35.13579
35.17559
35.31957
35.5064
35.76901
35.9861
36.15711
36.28915
36.3893
36.46349
36.51617
36.55064
36.56919
36.57309
36.56257
36.53681
36.49401
36.43134
36.34496
36.22971
36.07901
35.88553
35.64453
35.3946
35.24137
35.0831
35.10204
35.30034
35.58333
35.82521
36.01473
36.16143
36.27312
36.3562
36.41536
36.45411
36.47498
36.47938
36.46755
36.43861
36.39052
36.32024
36.2237
36.09542
35.92821
35.71366
35.44459
35.17
35.01773
35.08538
35.37658
35.64408
35.85311
36.01597
36.14048
36.23337
36.29959
36.34301
36.3664
36.37132
36.35807
36.32565
36.27181
36.19316
36.08533
35.94263
35.7575
35.52155
35.20954
34.93549
35.13344
35.42908
35.66286
35.84478
35.9844
36.08889
36.16329
36.21199
36.23824
36.24377
36.22887
36.19248
36.13203
36.04356
35.92241
35.76275
35.55585
35.28715
34.97156
34.87644
35.15532
35.43526
35.63934
35.79682
35.91568
35.99993
36.05478
36.08438
36.09058
36.07376
36.0327
35.96448
35.86389
35.7265
35.54722
35.31314
35.02748
34.86255
35.14551
35.39023
35.56978
35.70646
35.80222
35.86405
35.89754
35.90443
35.88546
35.83895
35.76198
35.64648
35.48908
35.28602
35.04272
34.84097
35.09161
35.29913
35.4535
35.56127
35.6311
35.66919
35.67654
35.65543
35.60233
35.51652
35.3842