
17308
(
(-0.007483512 0.0002388774 -0.07159531)
(-0.007455667 0.001197184 -0.07158643)
(0.005391717 0.004095306 -0.07165949)
(0.005089014 0.006211805 -0.07131274)
(-0.01612809 0.000236229 -0.07016747)
(0.01814345 0.0002331675 -0.06966603)
(-0.01611978 0.001188408 -0.07015684)
(0.01802527 0.001222144 -0.06968769)
(-0.01634843 0.002174577 -0.07000983)
(-0.01614888 0.003131736 -0.07000809)
(0.01405157 0.003165581 -0.07037225)
(-0.01623855 0.004112824 -0.07001021)
(0.01406939 0.004113278 -0.07048699)
(-0.01621975 0.005074781 -0.06995118)
(0.01404084 0.005074963 -0.07042966)
(-0.0161952 0.006031137 -0.06988103)
(0.01401811 0.006031532 -0.07035879)
(-0.01614765 0.006986174 -0.06980347)
(0.01396782 0.006986197 -0.07027964)
(-0.01594888 0.007935103 -0.06972884)
(0.01374355 0.007919698 -0.07007833)
(-0.01202418 0.008926 -0.07038094)
(0.01417079 0.008944549 -0.06995707)
(-0.01180282 0.009874457 -0.07027132)
(0.01403089 0.009897187 -0.06990926)
(-0.01156283 0.0108298 -0.07015403)
(0.009899371 0.0108745 -0.0702958)
(0.01389528 0.01084297 -0.06979134)
(-0.01155581 0.01178266 -0.06988857)
(0.009647544 0.01176989 -0.07005401)
(0.01306954 0.01171483 -0.06968035)
(-0.01181872 0.01280345 -0.06981752)
(-0.007714587 0.01277251 -0.07030238)
(0.009516384 0.01278962 -0.07017947)
(-0.01089522 0.01370142 -0.06956337)
(-0.007315882 0.01379225 -0.07001451)
(0.005405395 0.01384466 -0.07026741)
(0.009317934 0.01378329 -0.0697404)
(-0.007180559 0.01516333 -0.06983534)
(-0.003117213 0.01523024 -0.07029269)
(0.001049816 0.01525658 -0.07034876)
(0.00520614 0.01521205 -0.07008856)
(0.008813312 0.01506173 -0.06967016)
(-0.003154075 0.01722108 -0.06982888)
(0.001041376 0.01701055 -0.06994501)
(0.00532348 0.01712152 -0.06971895)
(0.02300877 0.0002421428 -0.06821305)
(0.0229395 0.001203561 -0.06822408)
(0.02288113 0.002169501 -0.06822014)
(0.02279018 0.003140654 -0.068214)
(0.02274812 0.004109798 -0.06817684)
(0.02272105 0.005075739 -0.06812091)
(0.0226823 0.006035597 -0.06805541)
(0.02252208 0.006997783 -0.06801483)
(-0.02059483 0.007985816 -0.06852322)
(0.02252701 0.007966615 -0.06790751)
(-0.02049967 0.008919682 -0.06843616)
(0.02244698 0.008903477 -0.06781787)
(-0.02082775 0.00991443 -0.06819389)
(-0.02064647 0.01086147 -0.06810281)
(-0.02035397 0.0118281 -0.06802954)
(0.01843265 0.01188603 -0.06857481)
(-0.02029922 0.01278393 -0.06787425)
(0.01832746 0.01279852 -0.06843745)
(0.01857523 0.01387694 -0.06811512)
(-0.01611251 0.01529347 -0.06839086)
(0.01815732 0.01523572 -0.0679345)
(-0.0161491 0.01715445 -0.06802267)
(0.01407773 0.01722287 -0.06845664)
(-0.01176908 0.01933206 -0.06832077)
(0.01387702 0.01932449 -0.06793787)
(-0.01156943 0.02143548 -0.06774069)
(-0.007387231 0.02143334 -0.06832865)
(0.005439413 0.02157185 -0.06846833)
(0.009332707 0.0213171 -0.06812655)
(-0.003104397 0.02364964 -0.067922)
(0.001043481 0.02369256 -0.06796959)
(0.005319022 0.0235625 -0.06781348)
(-0.02906233 0.0002365208 -0.06586439)
(-0.02897289 0.001175291 -0.0658922)
(-0.02878512 0.002143473 -0.06594898)
(0.02710821 0.002212793 -0.06666159)
(0.02736272 0.003176252 -0.06651297)
(0.02726367 0.004126994 -0.06649951)
(0.02721954 0.00509095 -0.06645073)
(0.02718793 0.006056949 -0.06638259)
(0.02715211 0.007018216 -0.06630252)
(0.02710959 0.007974874 -0.06621164)
(0.02704699 0.00892802 -0.06611533)
(0.02693995 0.009871613 -0.06602442)
(-0.02497635 0.01091399 -0.06663748)
(0.02673241 0.01082065 -0.06595913)
(-0.0252363 0.01187178 -0.06636893)
(-0.02499003 0.01283172 -0.06628202)
(-0.02480458 0.01386096 -0.06614391)
(-0.0245085 0.01529683 -0.06593772)
(0.0227379 0.01534946 -0.06656323)
(0.02260496 0.01716998 -0.06615302)
(-0.02059108 0.01933194 -0.0662152)
(0.01842192 0.02148051 -0.06619124)
(-0.01602747 0.02366659 -0.06607091)
(0.01395669 0.0236871 -0.06653575)
(-0.01178666 0.02585914 -0.06614112)
(0.009627765 0.02583087 -0.06650482)
(-0.007477173 0.02792438 -0.06592865)
(-0.003086326 0.02787171 -0.06630455)
(0.0009970961 0.0279221 -0.06634895)
(0.005242322 0.02803068 -0.06609991)
(0.0324167 0.0002415063 -0.06428798)
(0.03232965 0.001198478 -0.06431969)
(0.03174542 0.002208784 -0.06457711)
(0.03162723 0.003159579 -0.06459304)
(0.03160032 0.004123011 -0.06455187)
(0.03156932 0.005089876 -0.064498)
(0.03153478 0.006054837 -0.06443154)
(0.03149365 0.007015577 -0.06435423)
(0.03144614 0.007971936 -0.06426618)
(0.03138533 0.008922833 -0.06417098)
(0.03128208 0.009866315 -0.06408365)
(0.03110017 0.0108233 -0.0640179)
(-0.02957 0.01191753 -0.06454833)
(-0.02939814 0.01285375 -0.06444441)
(-0.02925609 0.01388808 -0.06429388)
(-0.02898152 0.01524288 -0.06410776)
(0.02722663 0.01723934 -0.06437431)
(-0.0249258 0.01940852 -0.06469303)
(0.02665831 0.01932819 -0.06401626)
(-0.0246607 0.0215486 -0.06410799)
(0.02244524 0.0237193 -0.06415609)
(-0.02029338 0.02584836 -0.06404845)
(0.01840277 0.02587934 -0.06461225)
(-0.01634837 0.02799841 -0.06427281)
(-0.01170544 0.03027985 -0.06425468)
(0.009708714 0.03026177 -0.0645972)
(0.01377487 0.03005174 -0.06394838)
(-0.00739884 0.03220043 -0.06395829)
(-0.003132884 0.03237399 -0.06422117)
(0.001036421 0.03245134 -0.06425091)
(0.005193458 0.03229508 -0.06412736)
(0.03585299 0.0002422829 -0.06242884)
(0.03581089 0.001207545 -0.06244026)
(0.03578686 0.00217564 -0.06242768)
(0.03576686 0.003143648 -0.06239792)
(0.03574168 0.004108897 -0.06235623)
(0.0357039 0.005068459 -0.06230735)
(0.03569386 0.006033007 -0.06222659)
(0.03549157 0.007008288 -0.0622423)
(0.03538767 0.00795864 -0.0621876)
(0.03525051 0.008962435 -0.06213117)
(-0.03455185 0.009921171 -0.06238127)
(-0.03388708 0.01091291 -0.06257355)
(-0.03370426 0.01185791 -0.06249767)
(-0.03360109 0.01281642 -0.06236426)
(-0.03348749 0.01386255 -0.06220108)
(-0.03295907 0.01532097 -0.06214386)
(0.03147643 0.01720967 -0.06241416)
(-0.03021458 0.01943592 -0.06239163)
(-0.02899707 0.02157731 -0.06225749)
(0.02709686 0.02366751 -0.06235319)
(-0.02496385 0.02585647 -0.0623747)
(0.02262015 0.02807046 -0.06231275)
(-0.02025314 0.0301945 -0.06213021)
(0.0182348 0.03022861 -0.0627428)
(-0.01606903 0.03236102 -0.06226459)
(0.01400305 0.03239673 -0.0627474)
(-0.01172807 0.03440373 -0.0621371)
(-0.007552907 0.03458575 -0.06268641)
(0.009605193 0.03462836 -0.06237873)
(-0.003172924 0.03649908 -0.06196785)
(0.0009908986 0.03655301 -0.06201135)
(-0.03900467 0.000244388 -0.06051791)
(-0.03896338 0.001209303 -0.06053148)
(-0.03894472 0.002176683 -0.06051651)
(-0.03892399 0.003143942 -0.06048726)
(-0.0388946 0.004107398 -0.06044842)
(-0.03884506 0.005066842 -0.06040743)
(-0.03868907 0.00604224 -0.06041732)
(-0.03817642 0.00703163 -0.06062908)
(-0.03808225 0.007981059 -0.06057052)
(-0.03797234 0.008941339 -0.0605049)
(-0.03792392 0.009907149 -0.06038406)
(-0.03769371 0.01087685 -0.06036348)
(-0.03754347 0.01181689 -0.06028101)
(0.03686838 0.01288983 -0.06048414)
(0.03655103 0.01390944 -0.06044932)
(0.03583416 0.0153126 -0.06053079)
(0.03541846 0.01723369 -0.06025905)
(-0.03375613 0.01938833 -0.06055777)
(-0.03308362 0.02150851 -0.06021074)
(0.0312981 0.02375256 -0.060323)
(-0.02936465 0.02585053 -0.06043109)
(0.0271857 0.02802392 -0.0604836)
(-0.02487759 0.03030281 -0.06037737)
(0.02244337 0.03238994 -0.06024525)
(0.01836865 0.03460541 -0.06039521)
(-0.01180822 0.03675818 -0.06076454)
(0.01395565 0.03670376 -0.06033594)
(-0.007459755 0.03873848 -0.06021435)
(-0.003203751 0.0390172 -0.06041443)
(0.001056026 0.03884292 -0.06060399)
(0.005258683 0.03888562 -0.06035384)
(-0.04206913 0.0002421764 -0.05842263)
(-0.04204001 0.0012058 -0.0584302)
(-0.04202124 0.002169123 -0.05841587)
(-0.04199889 0.003125923 -0.05838862)
(-0.0419744 0.004098166 -0.05834598)
(-0.04183825 0.005060465 -0.05836959)
(-0.0417298 0.006072719 -0.05835273)
(0.04117059 0.007042008 -0.05864391)
(0.04107334 0.007984655 -0.05859112)
(0.04098868 0.008939253 -0.0585125)
(0.04081088 0.009907464 -0.05848024)
(0.04030053 0.01089149 -0.05865184)
(0.0401967 0.01184691 -0.05853673)
(0.03991436 0.01283575 -0.05852323)
(0.03973982 0.0138742 -0.05840551)
(-0.03898792 0.01538289 -0.05854018)
(-0.0381041 0.01725362 -0.058592)
(-0.03746717 0.01937701 -0.05834038)
(0.03591309 0.02153143 -0.05855986)
(-0.03448408 0.02378435 -0.05855401)
(-0.03319727 0.02590498 -0.05838994)
(0.03129535 0.02809925 -0.05842631)
(-0.02910861 0.0302746 -0.05846969)
(0.02685961 0.03243734 -0.05838448)
(-0.02450823 0.03449025 -0.05824225)
(-0.02051614 0.0367771 -0.05838687)
(-0.01616442 0.03887851 -0.05839225)
(-0.01164473 0.04084489 -0.05812292)
(-0.007529214 0.04123322 -0.05852936)
(0.005483813 0.04110915 -0.05884513)
(0.009525059 0.04103598 -0.05837571)
(-0.044772 0.0002410639 -0.05638212)
(-0.04476285 0.001204272 -0.05637622)
(-0.0447472 0.002166341 -0.05635983)
(-0.04471416 0.003122538 -0.05634112)
(-0.0446344 0.004092272 -0.05634162)
(0.04374545 0.004156815 -0.05703366)
(-0.04464409 0.005052791 -0.0562566)
(0.0437104 0.005064869 -0.05698662)
(-0.04458554 0.006041212 -0.05620663)
(0.04367013 0.006030154 -0.05692293)
(0.04383865 0.007019583 -0.05667539)
(0.04377449 0.007973153 -0.05659868)
(0.04368159 0.008932101 -0.05652748)
(0.04359083 0.009880158 -0.05643983)
(0.04346593 0.01087144 -0.05635548)
(-0.04287785 0.0118602 -0.05660831)
(-0.04235154 0.01285166 -0.05678152)
(-0.04217522 0.01388414 -0.05666911)
(-0.04194823 0.01532676 -0.05646578)
(0.0409669 0.01724983 -0.05663548)
(0.04008286 0.0193422 -0.05658399)
(-0.038855 0.02160627 -0.05662958)
(-0.03773071 0.02375487 -0.05652185)
(0.0359845 0.02591612 -0.05671035)
(-0.03446849 0.02812672 -0.0566059)
(-0.03308201 0.03018795 -0.05636276)
(0.03096669 0.03234978 -0.056365)
(0.02802168 0.03460182 -0.05657631)
(-0.02492634 0.03685392 -0.05659514)
(0.02239089 0.0388407 -0.05632403)
(-0.01614222 0.04107311 -0.05688063)
(0.01819427 0.04097273 -0.05632586)
(-0.0118423 0.04316418 -0.05638057)
(0.009657546 0.04341663 -0.0566078)
(-0.04689964 0.0002421264 -0.05462531)
(-0.04689252 0.001206302 -0.05461784)
(-0.04687599 0.002172289 -0.05460213)
(-0.04685029 0.003138979 -0.0545772)
(-0.04681757 0.004103311 -0.05454131)
(-0.04677649 0.005064967 -0.05449574)
(-0.0467249 0.006022674 -0.05444248)
(-0.04666713 0.006970575 -0.05437894)
(-0.04658004 0.00791926 -0.05432354)
(0.04583069 0.007996634 -0.05494947)
(0.04600541 0.00895049 -0.0546528)
(0.04590597 0.009898549 -0.05457214)
(0.04579301 0.01084628 -0.05448688)
(0.04565389 0.01179079 -0.05440698)
(-0.04482538 0.01280522 -0.05486777)
(0.04559924 0.01279749 -0.0542267)
(-0.0448945 0.01386565 -0.05454918)
(-0.04460109 0.01527612 -0.05441243)
(0.04367495 0.01716869 -0.05459654)
(-0.04241247 0.01942726 -0.05483359)
(-0.04183813 0.02153212 -0.05448586)
(0.04028684 0.02372399 -0.05474323)
(-0.03890898 0.02597693 -0.05472417)
(-0.03768549 0.02808072 -0.0545335)
(0.03585345 0.03018397 -0.05464492)
(-0.03377513 0.03239872 -0.0547012)
(0.03156981 0.03456824 -0.05469017)
(-0.02910341 0.03680031 -0.05460228)
(0.02662615 0.03885966 -0.05443649)
(0.02266251 0.04110835 -0.05458056)
(0.01830493 0.04326045 -0.05455188)
(-0.01177147 0.04544151 -0.05458161)
(0.01382954 0.0452044 -0.05429165)
(-0.04873585 0.0002382823 -0.05299682)
(0.04947996 0.0002330626 -0.05229997)
(-0.04876467 0.001198834 -0.05295615)
(0.04947584 0.001213298 -0.05229049)
(-0.04894352 0.002184266 -0.05275615)
(-0.0489015 0.003143407 -0.05274675)
(-0.04885611 0.004110674 -0.05272247)
(-0.04881259 0.00507575 -0.05267867)
(-0.04876182 0.006036769 -0.05262428)
(-0.04870215 0.006993116 -0.05256114)
(-0.04863085 0.007941667 -0.05249235)
(-0.04852161 0.008879382 -0.05244288)
(0.04797341 0.009930059 -0.05275881)
(0.04786793 0.01087042 -0.05266839)
(0.04774924 0.01181581 -0.05257257)
(0.0476311 0.01275652 -0.05245969)
(-0.04678098 0.0139021 -0.05293445)
(0.04751975 0.01384899 -0.05228343)
(-0.04679338 0.01522663 -0.05255393)
(0.04594814 0.0172011 -0.05269068)
(-0.04498867 0.01934869 -0.05277311)
(0.04389801 0.02154403 -0.05283965)
(-0.04290548 0.02375325 -0.05271054)
(-0.04184286 0.0258678 -0.05256265)
(0.04018536 0.02804346 -0.05273931)
(-0.03873269 0.03024367 -0.05261666)
(0.03669524 0.03244799 -0.05276408)
(-0.03461822 0.03463091 -0.05277979)
(0.03236044 0.03678209 -0.05275673)
(-0.02957168 0.03895899 -0.05282284)
(0.02686386 0.04109816 -0.05264899)
(0.02273861 0.04337383 -0.05276511)
(0.01836149 0.04548727 -0.05269006)
(-0.01175187 0.04765298 -0.05266707)
(0.0138488 0.04736387 -0.05241364)
(0.05138063 0.0002350345 -0.05043364)
(0.05140114 0.001175781 -0.05039833)
(0.05130876 0.002179457 -0.05046048)
(-0.05085988 0.003170602 -0.05085988)
(-0.05082587 0.004115488 -0.05082587)
(-0.05078228 0.005078906 -0.05078228)
(-0.05072958 0.006041394 -0.05072958)
(-0.050668 0.006998965 -0.050668)
(-0.0505977 0.007951145 -0.0505977)
(-0.05051953 0.008890311 -0.05051953)
(-0.05042695 0.009888401 -0.05042695)
(0.0498471 0.01089655 -0.05079399)
(0.04973319 0.01182847 -0.05069692)
(0.04961773 0.01276965 -0.05058158)
(0.04947341 0.01386226 -0.05043517)
(-0.0487702 0.01528295 -0.05070766)
(-0.04848589 0.01714817 -0.05038148)
(0.04774316 0.01723263 -0.05106118)
(0.04759478 0.01930414 -0.05045116)
(-0.04663475 0.02148296 -0.05046708)
(-0.04485083 0.02368518 -0.05109814)
(0.0456361 0.02360048 -0.05043411)
(0.04386484 0.02587161 -0.05088953)
(-0.04241274 0.02810188 -0.050935)
(0.04103555 0.03031765 -0.0507968)
(0.0396296 0.03239504 -0.05062533)
(-0.03770477 0.03455711 -0.05066531)
(0.03554945 0.0367465 -0.05068257)
(-0.03322589 0.0388845 -0.05066304)
(-0.03019596 0.04115314 -0.05077329)
(0.02694279 0.04333397 -0.05078263)
(0.02275876 0.04558085 -0.05086166)
(0.01835324 0.04764234 -0.05075279)
(-0.01183316 0.04976831 -0.05064966)
(0.009645622 0.05023017 -0.05066361)
(-0.05299682 0.0002382823 -0.04873585)
(-0.05295615 0.001198834 -0.04876467)
(-0.05275615 0.002184266 -0.04894352)
(-0.05274675 0.003143407 -0.0489015)
(-0.05272247 0.004110674 -0.04885611)
(-0.05267867 0.00507575 -0.04881259)
(-0.05262428 0.006036769 -0.04876182)
(-0.05256114 0.006993116 -0.04870215)
(-0.05249235 0.007941667 -0.04863085)
(-0.05244288 0.008879382 -0.04852161)
(0.05202565 0.009938562 -0.04876852)
(0.05173583 0.01088573 -0.04887107)
(0.05164343 0.01182396 -0.0487507)
(0.05152837 0.01276634 -0.04863461)
(0.05137479 0.01385559 -0.04849891)
(-0.05070766 0.01528295 -0.0487702)
(-0.05038148 0.01714817 -0.04848589)
(0.04951156 0.01932109 -0.04856491)
(-0.04858625 0.02149382 -0.04858625)
(0.04759653 0.02364921 -0.04856456)
(-0.04658323 0.02575194 -0.04847752)
(0.04582917 0.0258455 -0.04914581)
(-0.04486841 0.02799612 -0.04884984)
(0.04354534 0.03020738 -0.04872783)
(-0.04191679 0.03241081 -0.04873747)
(0.0400005 0.03461161 -0.04883489)
(-0.03790347 0.03682013 -0.04889206)
(0.03571309 0.03897783 -0.04886783)
(-0.03334229 0.04111489 -0.04879026)
(0.03085846 0.043173 -0.04864479)
(0.02698854 0.04549234 -0.04883267)
(0.02273287 0.04771355 -0.04887867)
(0.01830137 0.04971104 -0.0487478)
(-0.01176953 0.0517633 -0.04862334)
(-0.00758774 0.05241788 -0.04876082)
(0.009576587 0.0520093 -0.04884629)
(-0.05462531 0.0002421264 -0.04689964)
(-0.05461784 0.001206302 -0.04689252)
(-0.05460213 0.002172289 -0.04687599)
(-0.0545772 0.003138979 -0.04685029)
(-0.05454131 0.004103311 -0.04681757)
(-0.05449574 0.005064967 -0.04677649)
(-0.05444248 0.006022674 -0.0467249)
(-0.05437894 0.006970575 -0.04666713)
(-0.05432354 0.00791926 -0.04658004)
(0.05394917 0.008969617 -0.04682785)
(0.05366707 0.009915624 -0.04695728)
(0.0535876 0.01085993 -0.0468391)
(0.0534848 0.01180355 -0.04672823)
(0.05339121 0.01274523 -0.04658736)
(-0.05293445 0.0139021 -0.04678098)
(-0.05255393 0.01522663 -0.04679338)
(0.05178704 0.01723226 -0.04695243)
(0.05137985 0.01928287 -0.04659897)
(-0.05046708 0.02148296 -0.04663475)
(0.04951064 0.023629 -0.04662203)
(-0.04847752 0.02575194 -0.04658323)
(-0.04690528 0.02798553 -0.04690528)
(0.0457384 0.03015547 -0.0467115)
(0.04379948 0.03249625 -0.04699845)
(-0.04217383 0.03464576 -0.04694658)
(0.04025978 0.03677184 -0.04700713)
(-0.03816015 0.03894001 -0.04701284)
(0.03585431 0.04117296 -0.04692655)
(-0.03345801 0.04324387 -0.04683185)
(-0.03018964 0.04555833 -0.04686579)
(0.02686617 0.04761308 -0.04683849)
(0.02265001 0.04975855 -0.04683577)
(-0.01617285 0.05212836 -0.04694407)
(0.01817672 0.05171108 -0.04666723)
(-0.007439266 0.05416036 -0.04683799)
(-0.003346344 0.05459389 -0.04681059)
(0.005311137 0.05446035 -0.04678309)
(0.009621417 0.05395956 -0.04666859)
(-0.05638212 0.0002410639 -0.044772)
(-0.05637622 0.001204272 -0.04476285)
(-0.05635983 0.002166341 -0.0447472)
(-0.05634112 0.003122538 -0.04471416)
(-0.05634162 0.004092272 -0.0446344)
(-0.0562566 0.005052791 -0.04464409)
(-0.05620663 0.006041212 -0.04458554)
(0.05590385 0.00700043 -0.04482801)
(0.05563386 0.007981692 -0.04499635)
(0.05554694 0.008932331 -0.04492386)
(0.05547189 0.009883902 -0.04481749)
(0.05541904 0.01083372 -0.04466223)
(0.05527131 0.01183334 -0.04459368)
(-0.05486777 0.01280522 -0.04482538)
(-0.05454918 0.01386565 -0.0448945)
(-0.05441243 0.01527612 -0.04460109)
(0.05361412 0.01715335 -0.04488451)
(-0.05277311 0.01934869 -0.04498867)
(0.05206537 0.02150031 -0.04483895)
(-0.05109814 0.02368518 -0.04485083)
(0.04988442 0.02586457 -0.04501022)
(-0.04884984 0.02799612 -0.04486841)
(0.04767454 0.03016848 -0.0447247)
(0.04600588 0.03238291 -0.04492299)
(-0.04467629 0.03451526 -0.04467629)
(-0.04242216 0.03680636 -0.04503894)
(0.04087173 0.03888869 -0.04472714)
(-0.03869283 0.0410445 -0.04473848)
(0.0358871 0.04337381 -0.04487196)
(-0.03336611 0.04544663 -0.04476404)
(-0.02966474 0.04785412 -0.04486012)
(0.02668071 0.04966171 -0.0447672)
(-0.02047686 0.05248362 -0.04482282)
(0.02237731 0.05176051 -0.04474641)
(-0.01606344 0.05405312 -0.04474922)
(0.01398989 0.05461294 -0.04477208)
(-0.007484803 0.05597479 -0.04464244)
(-0.003142882 0.05626104 -0.04480008)
(0.001039819 0.05626801 -0.04489047)
(0.005208795 0.05618257 -0.0447062)
(-0.05842263 0.0002421764 -0.04206913)
(-0.0584302 0.0012058 -0.04204001)
(-0.05841587 0.002169123 -0.04202124)
(-0.05838862 0.003125923 -0.04199889)
(-0.05834598 0.004098166 -0.0419744)
(0.05754394 0.004160344 -0.04307185)
(-0.05836959 0.005060465 -0.04183825)
(0.05754501 0.005067453 -0.04297238)
(-0.05835273 0.006072719 -0.0417298)
(0.05755332 0.006040622 -0.04283439)
(0.05777481 0.007035407 -0.04237379)
(0.05771648 0.007984237 -0.04228487)
(0.05763525 0.008941131 -0.04220403)
(0.05755938 0.009897455 -0.04209342)
(0.05743058 0.01085115 -0.04203357)
(-0.05660831 0.0118602 -0.04287785)
(0.05741205 0.01188295 -0.04178425)
(-0.05678152 0.01285166 -0.04235154)
(-0.05666911 0.01388414 -0.04217522)
(-0.05646578 0.01532676 -0.04194823)
(0.05571929 0.01722274 -0.0422079)
(-0.05483359 0.01942726 -0.04241247)
(-0.05448586 0.02153212 -0.04183813)
(0.05365073 0.02158269 -0.04288694)
(-0.05271054 0.02375325 -0.04290548)
(0.05354715 0.02372105 -0.04186647)
(-0.05256265 0.0258678 -0.04184286)
(0.05172506 0.02588667 -0.04287089)
(-0.050935 0.02810188 -0.04241274)
(0.04983761 0.03030858 -0.04219664)
(-0.04873747 0.03241081 -0.04191679)
(0.04784842 0.03244854 -0.04290802)
(-0.04694658 0.03464576 -0.04217383)
(-0.04503894 0.03680636 -0.04242216)
(0.04355761 0.03892255 -0.0420775)
(0.04120815 0.0412198 -0.04226086)
(-0.03853787 0.0434823 -0.04250021)
(0.03611679 0.04571443 -0.04228611)
(-0.03363754 0.04778375 -0.04203746)
(-0.02967516 0.04997225 -0.0424724)
(-0.02502497 0.05208216 -0.04294123)
(0.02698555 0.05200426 -0.04182396)
(-0.02073101 0.05441262 -0.04232592)
(-0.01618969 0.05629097 -0.0418438)
(0.01404003 0.05649276 -0.04235145)
(-0.007573422 0.05804894 -0.04189359)
(-0.003256556 0.05814681 -0.04231592)
(0.001057367 0.05799053 -0.04264667)
(0.00531797 0.05810163 -0.04216711)
(-0.06051791 0.000244388 -0.03900467)
(0.06133343 0.0002414622 -0.03769902)
(-0.06053148 0.001209303 -0.03896338)
(0.06134496 0.001207116 -0.03765958)
(-0.06051651 0.002176683 -0.03894472)
(0.06132989 0.002175036 -0.03764072)
(-0.06048726 0.003143942 -0.03892399)
(0.06130024 0.003142002 -0.0376207)
(-0.06044842 0.004107398 -0.0388946)
(0.0612603 0.004105225 -0.03759304)
(-0.06040743 0.005066842 -0.03884506)
(0.06121683 0.0050608 -0.03754746)
(-0.06041732 0.00604224 -0.03868907)
(0.06119294 0.006069069 -0.03744065)
(-0.06062908 0.00703163 -0.03817642)
(-0.06057052 0.007981059 -0.03808225)
(-0.0605049 0.008941339 -0.03797234)
(-0.06038406 0.009907149 -0.03792392)
(-0.06036348 0.01087685 -0.03769371)
(0.0595385 0.0109015 -0.03898741)
(-0.06028101 0.01181689 -0.03754347)
(0.05946555 0.01183702 -0.03882522)
(0.059647 0.0128565 -0.0382089)
(0.05955615 0.01389804 -0.03798142)
(-0.05854018 0.01538289 -0.03898792)
(0.05936195 0.01527471 -0.0377548)
(-0.058592 0.01725362 -0.0381041)
(-0.05834038 0.01937701 -0.03746717)
(0.0575366 0.01935548 -0.03870799)
(-0.05662958 0.02160627 -0.038855)
(0.05743591 0.0215552 -0.03767139)
(-0.05652185 0.02375487 -0.03773071)
(0.05570088 0.02380324 -0.03891357)
(-0.05472417 0.02597693 -0.03890898)
(0.05555479 0.02593242 -0.03773313)
(-0.0545335 0.02808072 -0.03768549)
(0.05369895 0.02812103 -0.03884691)
(-0.05261666 0.03024367 -0.03873269)
(0.05347917 0.03018908 -0.03756663)
(0.05180891 0.03238422 -0.03807565)
(-0.05066531 0.03455711 -0.03770477)
(0.04978524 0.03462038 -0.03881054)
(-0.04889206 0.03682013 -0.03790347)
(0.04803089 0.03686282 -0.03895675)
(-0.04701284 0.03894001 -0.03816015)
(-0.04473848 0.0410445 -0.03869283)
(0.04574195 0.04099997 -0.03754172)
(-0.04250021 0.0434823 -0.03853787)
(0.04045702 0.04561611 -0.03826337)
(-0.03800751 0.04788341 -0.03800751)
(0.03557859 0.04992922 -0.03771923)
(0.03154562 0.0522292 -0.03819548)
(-0.02897514 0.05416026 -0.03752816)
(0.02701558 0.05423695 -0.03887431)
(-0.02478706 0.05620914 -0.03751931)
(0.02277542 0.05655279 -0.03827651)
(-0.01630742 0.05817748 -0.03914556)
(0.01854273 0.05810934 -0.03822261)
(-0.01608895 0.05924055 -0.03760404)
(-0.01199356 0.05930152 -0.03901822)
(0.01385764 0.05920577 -0.0385406)
(-0.01181555 0.06022501 -0.03762524)
(-0.007459772 0.06019959 -0.03877098)
(0.00548484 0.0602644 -0.03900044)
(0.009477647 0.06014283 -0.03841493)
(-0.007447489 0.06108974 -0.03734789)
(-0.003260792 0.06120144 -0.03776616)
(0.001082854 0.06105499 -0.03812997)
(0.005287458 0.06115953 -0.03760359)
(0.06352236 0.0002438075 -0.03387772)
(0.06354427 0.00120918 -0.03381247)
(0.06354756 0.002180739 -0.03375638)
(0.06351668 0.003149295 -0.03373816)
(0.06347537 0.004115901 -0.03371176)
(0.0634215 0.00508168 -0.03368144)
(0.06335855 0.006044435 -0.033641)
(0.06329387 0.007004936 -0.03357721)
(0.06321874 0.00796038 -0.03350648)
(0.06310936 0.008916203 -0.03347111)
(-0.06238127 0.009921171 -0.03455185)
(0.0631055 0.009875173 -0.03321272)
(-0.06257355 0.01091291 -0.03388708)
(-0.06249767 0.01185791 -0.03370426)
(-0.06236426 0.01281642 -0.03360109)
(-0.06220108 0.01386255 -0.03348749)
(-0.06214386 0.01532097 -0.03295907)
(0.06138983 0.0153267 -0.03434897)
(0.06133616 0.01718234 -0.03354134)
(-0.06055777 0.01938833 -0.03375613)
(-0.06021074 0.02150851 -0.03308362)
(0.05943715 0.02158191 -0.03442198)
(-0.05855401 0.02378435 -0.03448408)
(0.05932452 0.02371639 -0.03317594)
(-0.05838994 0.02590498 -0.03319727)
(0.05760936 0.02597004 -0.03449838)
(-0.0566059 0.02812672 -0.03446849)
(0.05739854 0.0280676 -0.03316805)
(-0.05636276 0.03018795 -0.03308201)
(0.05556133 0.03022798 -0.03438966)
(-0.0547012 0.03239872 -0.03377513)
(-0.05277979 0.03463091 -0.03461822)
(0.05358315 0.03456583 -0.03341856)
(0.05184705 0.03676356 -0.0338081)
(-0.05066304 0.0388845 -0.03322589)
(0.04979616 0.03897502 -0.03441877)
(-0.04879026 0.04111489 -0.03334229)
(0.04788247 0.0411634 -0.03458578)
(-0.04683185 0.04324387 -0.03345801)
(0.04591439 0.04333819 -0.03459738)
(-0.04476404 0.04544663 -0.03336611)
(0.04364634 0.04557576 -0.03465518)
(-0.04203746 0.04778375 -0.03363754)
(0.03973271 0.04989099 -0.03337175)
(0.03622013 0.05214631 -0.03391641)
(-0.03347463 0.0542293 -0.03347463)
(-0.02934522 0.05643624 -0.03369838)
(-0.02529259 0.05814825 -0.03407045)
(0.02292959 0.05925248 -0.03383779)
(-0.02064582 0.06015954 -0.03370762)
(-0.01619742 0.06114761 -0.03437366)
(0.01822689 0.06113213 -0.03335945)
(-0.01182431 0.06209679 -0.03445488)
(0.01410393 0.06206608 -0.03362352)
(-0.007320635 0.06301086 -0.03403971)
(-0.003148536 0.06313961 -0.0344422)
(0.001055934 0.06316886 -0.03451596)
(0.005247313 0.06306531 -0.03432175)
(0.009691196 0.06308673 -0.03329286)
(-0.003212225 0.06392686 -0.03294362)
(0.001006925 0.06394838 -0.03304669)
(-0.06586439 0.0002365208 -0.02906233)
(-0.0658922 0.001175291 -0.02897289)
(-0.06594898 0.002143473 -0.02878512)
(0.065298 0.002227818 -0.03024801)
(0.06556676 0.003186658 -0.02955811)
(0.06555948 0.004130061 -0.02945225)
(0.06550974 0.005093127 -0.02941178)
(0.06544209 0.006059235 -0.02937922)
(0.06536226 0.00702072 -0.02934295)
(0.06527146 0.007977304 -0.02930059)
(0.06517205 0.008929121 -0.02924729)
(0.06507296 0.009875809 -0.02916324)
(0.06499735 0.01080451 -0.02900302)
(-0.06454833 0.01191753 -0.02957)
(-0.06444441 0.01285375 -0.02939814)
(-0.06429388 0.01388808 -0.02925609)
(-0.06410776 0.01524288 -0.02898152)
(0.06339578 0.01724589 -0.02943017)
(-0.06239163 0.01943592 -0.03021458)
(0.06309177 0.01933637 -0.02877372)
(-0.06225749 0.02157731 -0.02899707)
(0.06134473 0.02367374 -0.0293022)
(-0.06043109 0.02585053 -0.02936465)
(0.05946845 0.0280105 -0.02934913)
(-0.05846969 0.0302746 -0.02910861)
(0.05738811 0.03240238 -0.0289676)
(0.05578042 0.03460052 -0.02956337)
(-0.05460228 0.03680031 -0.02910341)
(-0.05282284 0.03895899 -0.02957168)
(-0.05077329 0.04115314 -0.03019596)
(0.05161601 0.0410416 -0.02887746)
(0.04973162 0.04323676 -0.02898151)
(-0.04686579 0.04555833 -0.03018964)
(0.04776747 0.0454063 -0.02896754)
(-0.04486012 0.04785412 -0.02966474)
(0.04579494 0.04749002 -0.02880672)
(-0.0424724 0.04997225 -0.02967516)
(0.04005332 0.05214333 -0.02930366)
(-0.03752816 0.05416026 -0.02897514)
(-0.03369838 0.05643624 -0.02934522)
(0.03113046 0.05805725 -0.0290147)
(-0.02894286 0.0592166 -0.02894286)
(0.02682664 0.06021282 -0.02892545)
(-0.02462128 0.06115762 -0.02890352)
(-0.02061863 0.06209249 -0.03004265)
(0.0223915 0.06208113 -0.02874708)
(0.01855848 0.06302598 -0.02941217)
(-0.01599222 0.06394916 -0.02892996)
(0.01398307 0.06395246 -0.02995793)
(-0.01171205 0.06487416 -0.02891845)
(-0.007562681 0.06494668 -0.03012748)
(0.009505805 0.06485135 -0.02977803)
(-0.003108321 0.06588559 -0.02883983)
(0.001042487 0.06591994 -0.02890924)
(0.00532568 0.06581951 -0.02866264)
(0.06753027 0.0002414481 -0.02496538)
(0.06753649 0.001190316 -0.02491489)
(0.06737981 0.002190844 -0.02525363)
(0.06738212 0.003147935 -0.02514177)
(0.06737059 0.004116296 -0.02503495)
(0.0673194 0.005084312 -0.02499525)
(0.06725256 0.006049408 -0.02495997)
(0.06717782 0.00701067 -0.02490897)
(0.06708865 0.0079664 -0.02486176)
(0.0669982 0.008914271 -0.02478324)
(0.0669383 0.009866274 -0.02458042)
(-0.06663748 0.01091399 -0.02497635)
(-0.06636893 0.01187178 -0.0252363)
(-0.06628202 0.01283172 -0.02499003)
(-0.06614391 0.01386096 -0.02480458)
(-0.06593772 0.01529683 -0.0245085)
(0.0652747 0.01720452 -0.02500942)
(-0.06469303 0.01940852 -0.0249258)
(-0.06410799 0.0215486 -0.0246607)
(0.06330616 0.0236601 -0.0247907)
(-0.0623747 0.02585647 -0.02496385)
(0.06142225 0.02803047 -0.02497926)
(-0.06037737 0.03030281 -0.02487759)
(0.05934237 0.0324352 -0.02467312)
(-0.05824225 0.03449025 -0.02450823)
(-0.05659514 0.03685392 -0.02492634)
(0.05540134 0.03886112 -0.02455397)
(0.0536325 0.04112042 -0.02480376)
(0.05179219 0.04337035 -0.02488194)
(0.04986675 0.04555679 -0.02490768)
(0.04787354 0.04767597 -0.02485283)
(0.04582696 0.04972393 -0.02469886)
(-0.04294123 0.05208216 -0.02502497)
(0.04016415 0.0542954 -0.02491375)
(-0.03751931 0.05620914 -0.02478706)
(-0.03407045 0.05814825 -0.02529259)
(0.03231149 0.05926325 -0.02503926)
(0.03090365 0.06017922 -0.024601)
(-0.02890352 0.06115762 -0.02462128)
(0.02677124 0.06212191 -0.02461697)
(-0.02455931 0.06305161 -0.02455931)
(-0.02058275 0.06400108 -0.02575497)
(0.02230414 0.06395861 -0.02436427)
(0.01835084 0.06500959 -0.02488501)
(-0.01585878 0.06585992 -0.02434429)
(0.0138915 0.06585047 -0.02556676)
(-0.01163684 0.06674603 -0.0243194)
(-0.007566834 0.06684596 -0.02563524)
(0.009561578 0.06687076 -0.02488201)
(-0.003180434 0.0677056 -0.0242473)
(0.0009943889 0.06773239 -0.02436445)
(0.06898637 0.0002385608 -0.02057781)
(0.0690251 0.001201019 -0.0204025)
(0.06899628 0.002176484 -0.02042268)
(0.06896782 0.003140387 -0.02039359)
(0.06892378 0.004107483 -0.02037082)
(0.06886561 0.005070546 -0.02035086)
(0.06880009 0.006024019 -0.02031269)
(0.0687444 0.007019062 -0.02019225)
(-0.06852322 0.007985816 -0.02059483)
(-0.06843616 0.008919682 -0.02049967)
(-0.06819389 0.00991443 -0.02082775)
(-0.06810281 0.01086147 -0.02064647)
(-0.06802954 0.0118281 -0.02035397)
(-0.06787425 0.01278393 -0.02029922)
(0.06757496 0.01392576 -0.02057044)
(0.06720944 0.01529834 -0.02076583)
(0.06693072 0.01719734 -0.02016851)
(-0.0662152 0.01933194 -0.02059108)
(0.0655557 0.02155271 -0.0205202)
(0.06493818 0.02364566 -0.02015107)
(-0.06404845 0.02584836 -0.02029338)
(0.06311957 0.0280283 -0.02030913)
(-0.06213021 0.0301945 -0.02025314)
(0.0610884 0.03231595 -0.02015172)
(0.05978518 0.0345463 -0.02037775)
(-0.05838687 0.0367771 -0.02051614)
(0.0571996 0.03878876 -0.02014604)
(0.0554748 0.04106108 -0.02047036)
(0.05368671 0.04333683 -0.02054591)
(0.05180465 0.04555734 -0.02057394)
(0.04984033 0.04770589 -0.0205564)
(0.04780989 0.04976329 -0.02050179)
(-0.04482282 0.05248362 -0.02047686)
(0.04572948 0.05175639 -0.0203094)
(-0.04232592 0.05441262 -0.02073101)
(0.03984886 0.05631136 -0.0205573)
(0.03689295 0.05819253 -0.02086968)
(0.03547367 0.05925822 -0.02029466)
(-0.03370762 0.06015954 -0.02064582)
(0.03213695 0.06110872 -0.02039409)
(-0.03004265 0.06209249 -0.02061863)
(0.02796977 0.06305673 -0.02060738)
(-0.02575497 0.06400108 -0.02058275)
(0.02300193 0.06498342 -0.02073129)
(-0.02040553 0.06594998 -0.02040553)
(-0.01605364 0.06684054 -0.0213892)
(0.01789878 0.06679098 -0.02000636)
(-0.01179303 0.06776542 -0.02124213)
(0.0138193 0.06773123 -0.0200817)
(-0.007064809 0.06857227 -0.02073735)
(-0.003097541 0.06873696 -0.02113464)